
Scratch directory: C:\Users\64292\AppData\Local\Temp/

  //>>>>>>>>>>>>>>>>>>>>>>>>>>>>>>>>>>>>>//
  // ManyBody Setup: N-Body Levels [1, 2]//
  //<<<<<<<<<<<<<<<<<<<<<<<<<<<<<<<<<<<<<//

        Number of 1-body computations:     2
        Number of 2-body computations:     1

    -----------------------------------------------------------------------
          Psi4: An Open-Source Ab Initio Electronic Structure Package
                               Psi4 1.6.1 release

                         Git: Rev {HEAD} 5b9f6e3 


    D. G. A. Smith, L. A. Burns, A. C. Simmonett, R. M. Parrish,
    M. C. Schieber, R. Galvelis, P. Kraus, H. Kruse, R. Di Remigio,
    A. Alenaizan, A. M. James, S. Lehtola, J. P. Misiewicz, M. Scheurer,
    R. A. Shaw, J. B. Schriber, Y. Xie, Z. L. Glick, D. A. Sirianni,
    J. S. O'Brien, J. M. Waldrop, A. Kumar, E. G. Hohenstein,
    B. P. Pritchard, B. R. Brooks, H. F. Schaefer III, A. Yu. Sokolov,
    K. Patkowski, A. E. DePrince III, U. Bozkaya, R. A. King,
    F. A. Evangelista, J. M. Turney, T. D. Crawford, C. D. Sherrill,
    J. Chem. Phys. 152(18) 184108 (2020). https://doi.org/10.1063/5.0006002

                            Additional Code Authors
    E. T. Seidl, C. L. Janssen, E. F. Valeev, M. L. Leininger,
    J. F. Gonthier, R. M. Richard, H. R. McAlexander, M. Saitow, X. Wang,
    P. Verma, M. H. Lechner, and A. Jiang

             Previous Authors, Complete List of Code Contributors,
                       and Citations for Specific Modules
    https://github.com/psi4/psi4/blob/master/codemeta.json
    https://github.com/psi4/psi4/graphs/contributors
    http://psicode.org/psi4manual/master/introduction.html#citing-psifour

    -----------------------------------------------------------------------


    Psi4 started on: Tuesday, 27 September 2022 06:25PM

    Process ID: 10544
    Host:       Lenovo-Y540-Zoha
    PSIDATADIR: C:\Users\64292\Anaconda3\envs\qm-tools\lib\share\psi4
    Memory:     476.8 MiB
    Threads:    1
    
  ==> Input QCSchema <==

--------------------------------------------------------------------------
{'driver': 'energy',
 'extras': {'psiapi': True, 'wfn_qcvars_only': True},
 'id': None,
 'keywords': {'function_kwargs': {}},
 'model': {'basis': 'aug-cc-pvdz', 'method': 'scf'},
 'molecule': {'atom_labels': ['1', '2', '3', '5', '6', '7'],
              'atomic_numbers': [8, 1, 1, 8, 1, 1],
              'fix_com': True,
              'fix_orientation': True,
              'fragment_charges': [0.0, 0.0],
              'fragment_multiplicities': [1, 1],
              'fragments': [[0, 1, 2], [3, 4, 5]],
              'geometry': [3.08214385307306e-17, -0.05118338925575477, -2.7381048180397762, 3.08214385307306e-17,
                           -0.05118338925575477, -0.8483786925819481, 3.08214385307306e-17, 1.7781852282291912,
                           -3.211893051957708, 3.08214385307306e-17, -0.05118338925575477, 2.5531283332421424,
                           0.8182754154208088, 1.3661112048376158, 3.4979913959710567, -0.8182754154208098,
                           -1.4684779833491268, 3.497991395971056],
              'mass_numbers': [16, 1, 1, 16, 1, 1],
              'masses': [15.99491461957, 1.00782503223, 1.00782503223, 15.99491461957, 1.00782503223, 1.00782503223],
              'molecular_charge': 0.0,
              'molecular_multiplicity': 1,
              'name': 'H4O2',
              'provenance': {'creator': 'QCElemental',
                             'routine': 'qcelemental.molparse.from_string',
                             'version': 'v0.25.0'},
              'real': [False, False, False, True, True, True],
              'schema_name': 'qcschema_molecule',
              'schema_version': 2,
              'symbols': ['O', 'H', 'H', 'O', 'H', 'H'],
              'validated': True},
 'protocols': {'stdout': True},
 'provenance': {'creator': 'QCElemental', 'routine': 'qcelemental.models.results', 'version': 'v0.25.0'},
 'schema_name': 'qcschema_input',
 'schema_version': 1}
--------------------------------------------------------------------------

Scratch directory: C:\Users\64292\AppData\Local\Temp/

*** tstart() called on Lenovo-Y540-Zoha
*** at Tue Sep 27 18:40:23 2022

   => Loading Basis Set <=

    Name: AUG-CC-PVDZ
    Role: ORBITAL
    Keyword: BASIS
    atoms 1, 4     entry O          line   254 file C:\Users\64292\Anaconda3\envs\qm-tools\lib\share\psi4\basis\aug-cc-pvdz.gbs 
    atoms 2-3, 5-6 entry H          line    40 file C:\Users\64292\Anaconda3\envs\qm-tools\lib\share\psi4\basis\aug-cc-pvdz.gbs 


         ---------------------------------------------------------
                                   SCF
               by Justin Turney, Rob Parrish, Andy Simmonett
                          and Daniel G. A. Smith
                              RHF Reference
                        1 Threads,    476 MiB Core
         ---------------------------------------------------------

  ==> Geometry <==

    Molecular point group: c1
    Full point group: C1

    Geometry (in Bohr), charge = 0, multiplicity = 1:

       Center              X                  Y                   Z               Mass       
    ------------   -----------------  -----------------  -----------------  -----------------
      Gh(O)           0.000000000000    -0.051183389256    -2.738104818040    15.994914619570
      Gh(H)           0.000000000000    -0.051183389256    -0.848378692582     1.007825032230
      Gh(H)           0.000000000000     1.778185228229    -3.211893051958     1.007825032230
         O            0.000000000000    -0.051183389256     2.553128333242    15.994914619570
         H            0.818275415421     1.366111204838     3.497991395971     1.007825032230
         H           -0.818275415421    -1.468477983349     3.497991395971     1.007825032230

  Running in c1 symmetry.

  Rotational constants: A =      7.05064  B =      0.23097  C =      0.22453 [cm^-1]
  Rotational constants: A = 211372.90765  B =   6924.43845  C =   6731.27471 [MHz]
  Nuclear repulsion =    8.772355975749338

  Charge       = 0
  Multiplicity = 1
  Electrons    = 10
  Nalpha       = 5
  Nbeta        = 5

  ==> Algorithm <==

  SCF Algorithm Type is DF.
  DIIS enabled.
  MOM disabled.
  Fractional occupation disabled.
  Guess Type is SAD.
  Energy threshold   = 1.00e-06
  Density threshold  = 1.00e-06
  Integral threshold = 1.00e-12

  ==> Primary Basis <==

  Basis Set: AUG-CC-PVDZ
    Blend: AUG-CC-PVDZ
    Number of shells: 38
    Number of basis functions: 82
    Number of Cartesian functions: 86
    Spherical Harmonics?: true
    Max angular momentum: 2

   => Loading Basis Set <=

    Name: (AUG-CC-PVDZ AUX)
    Role: JKFIT
    Keyword: DF_BASIS_SCF
    atoms 1, 4     entry O          line   270 file C:\Users\64292\Anaconda3\envs\qm-tools\lib\share\psi4\basis\aug-cc-pvdz-jkfit.gbs 
    atoms 2-3, 5-6 entry H          line    70 file C:\Users\64292\Anaconda3\envs\qm-tools\lib\share\psi4\basis\aug-cc-pvdz-jkfit.gbs 

  ==> Integral Setup <==

  DFHelper Memory: AOs need 0.017 GiB; user supplied 0.349 GiB. Using in-core AOs.

  ==> MemDFJK: Density-Fitted J/K Matrices <==

    J tasked:                   Yes
    K tasked:                   Yes
    wK tasked:                   No
    OpenMP threads:               1
    Memory [MiB]:               357
    Algorithm:                 Core
    Schwarz Cutoff:           1E-12
    Mask sparsity (%):       0.0000
    Fitting Condition:        1E-10

   => Auxiliary Basis Set <=

  Basis Set: (AUG-CC-PVDZ AUX)
    Blend: AUG-CC-PVDZ-JKFIT
    Number of shells: 104
    Number of basis functions: 300
    Number of Cartesian functions: 342
    Spherical Harmonics?: true
    Max angular momentum: 3

  Minimum eigenvalue in the overlap matrix is 1.8142049680E-03.
  Reciprocal condition number of the overlap matrix is 2.3834992024E-04.
    Using symmetric orthogonalization.

  ==> Pre-Iterations <==

  SCF Guess: Superposition of Atomic Densities via on-the-fly atomic UHF (no occupation information).

   -------------------------
    Irrep   Nso     Nmo    
   -------------------------
     A         82      82 
   -------------------------
    Total      82      82
   -------------------------

  ==> Iterations <==

                           Total Energy        Delta E     RMS |[F,P]|

   @DF-RHF iter SAD:   -75.40236269616683   -7.54024e+01   0.00000e+00 
   @DF-RHF iter   1:   -75.94524869075701   -5.42886e-01   5.51111e-03 DIIS/ADIIS
   @DF-RHF iter   2:   -75.99645040848986   -5.12017e-02   3.73387e-03 DIIS/ADIIS
   @DF-RHF iter   3:   -76.02954017015387   -3.30898e-02   2.79021e-04 DIIS/ADIIS
   @DF-RHF iter   4:   -76.03001106216527   -4.70892e-04   6.68255e-05 DIIS
   @DF-RHF iter   5:   -76.03004373532349   -3.26732e-05   1.63073e-05 DIIS
   @DF-RHF iter   6:   -76.03004681589442   -3.08057e-06   3.50591e-06 DIIS
   @DF-RHF iter   7:   -76.03004697174801   -1.55854e-07   6.45542e-07 DIIS
  Energy and wave function converged.


  ==> Post-Iterations <==

    Orbital Energies [Eh]
    ---------------------

    Doubly Occupied:                                                      

       1A    -20.575891     2A     -1.325797     3A     -0.721123  
       4A     -0.548184     5A     -0.500584  

    Virtual:                                                              

       6A      0.032448     7A      0.053777     8A      0.056880  
       9A      0.084766    10A      0.161198    11A      0.175653  
      12A      0.182526    13A      0.198702    14A      0.217050  
      15A      0.222223    16A      0.243904    17A      0.252168  
      18A      0.319400    19A      0.327115    20A      0.368828  
      21A      0.408702    22A      0.452241    23A      0.456111  
      24A      0.473582    25A      0.502558    26A      0.528173  
      27A      0.536530    28A      0.548303    29A      0.576966  
      30A      0.642079    31A      0.652541    32A      0.669148  
      33A      0.731846    34A      0.881154    35A      0.897572  
      36A      0.945661    37A      0.973905    38A      1.140902  
      39A      1.149394    40A      1.179799    41A      1.192280  
      42A      1.230391    43A      1.293042    44A      1.341016  
      45A      1.407662    46A      1.417406    47A      1.460222  
      48A      1.522662    49A      1.580876    50A      1.594078  
      51A      1.765041    52A      2.010887    53A      2.049414  
      54A      2.062047    55A      2.185115    56A      2.381152  
      57A      2.397858    58A      2.426255    59A      2.474492  
      60A      2.512607    61A      2.557202    62A      2.675200  
      63A      2.838345    64A      2.938813    65A      2.974292  
      66A      3.458339    67A      3.701273    68A      3.734634  
      69A      3.848375    70A      3.917931    71A      4.110328  
      72A      4.148837    73A      4.209026    74A      4.916451  
      75A      4.964711    76A      5.002483    77A      5.210481  
      78A      5.502787    79A      5.686600    80A      6.507969  
      81A      6.968243    82A     33.579850  

    Final Occupation by Irrep:
              A 
    DOCC [     5 ]

  @DF-RHF Final Energy:   -76.03004697174801

   => Energetics <=

    Nuclear Repulsion Energy =              8.7723559757493383
    One-Electron Energy =                -122.2616113406354827
    Two-Electron Energy =                  37.4592083931381481
    Total Energy =                        -76.0300469717479928

Computation Completed


Properties will be evaluated at   0.000000,   0.000000,   0.000000 [a0]

Properties computed using the SCF density matrix


 Multipole Moments:

 ------------------------------------------------------------------------------------
     Multipole            Electronic (a.u.)      Nuclear  (a.u.)        Total (a.u.)
 ------------------------------------------------------------------------------------

 L = 1.  Multiply by 2.5417464519 to convert [e a0] to [Debye]
 Dipole X            :          0.0001345           -0.0000000            0.0001345
 Dipole Y            :          0.5115516           -0.5118339           -0.0002823
 Dipole Z            :        -26.7370990           27.4210095            0.6839105
 Magnitude           :                                                    0.6839106

 ------------------------------------------------------------------------------------

*** tstop() called on Lenovo-Y540-Zoha at Tue Sep 27 18:40:24 2022
Module time:
	user time   =        nan seconds =        nan minutes
	system time =        nan seconds =        nan minutes
	total time  =          1 seconds =       0.02 minutes
Total time:
	user time   =        nan seconds =        nan minutes
	system time =        nan seconds =        nan minutes
	total time  =        843 seconds =      14.05 minutes

    Psi4 stopped on: Tuesday, 27 September 2022 06:40PM
    Psi4 wall time for execution: 0:00:01.02


    -----------------------------------------------------------------------
          Psi4: An Open-Source Ab Initio Electronic Structure Package
                               Psi4 1.6.1 release

                         Git: Rev {HEAD} 5b9f6e3 


    D. G. A. Smith, L. A. Burns, A. C. Simmonett, R. M. Parrish,
    M. C. Schieber, R. Galvelis, P. Kraus, H. Kruse, R. Di Remigio,
    A. Alenaizan, A. M. James, S. Lehtola, J. P. Misiewicz, M. Scheurer,
    R. A. Shaw, J. B. Schriber, Y. Xie, Z. L. Glick, D. A. Sirianni,
    J. S. O'Brien, J. M. Waldrop, A. Kumar, E. G. Hohenstein,
    B. P. Pritchard, B. R. Brooks, H. F. Schaefer III, A. Yu. Sokolov,
    K. Patkowski, A. E. DePrince III, U. Bozkaya, R. A. King,
    F. A. Evangelista, J. M. Turney, T. D. Crawford, C. D. Sherrill,
    J. Chem. Phys. 152(18) 184108 (2020). https://doi.org/10.1063/5.0006002

                            Additional Code Authors
    E. T. Seidl, C. L. Janssen, E. F. Valeev, M. L. Leininger,
    J. F. Gonthier, R. M. Richard, H. R. McAlexander, M. Saitow, X. Wang,
    P. Verma, M. H. Lechner, and A. Jiang

             Previous Authors, Complete List of Code Contributors,
                       and Citations for Specific Modules
    https://github.com/psi4/psi4/blob/master/codemeta.json
    https://github.com/psi4/psi4/graphs/contributors
    http://psicode.org/psi4manual/master/introduction.html#citing-psifour

    -----------------------------------------------------------------------


    Psi4 started on: Tuesday, 27 September 2022 06:25PM

    Process ID: 10544
    Host:       Lenovo-Y540-Zoha
    PSIDATADIR: C:\Users\64292\Anaconda3\envs\qm-tools\lib\share\psi4
    Memory:     476.8 MiB
    Threads:    1
    
  ==> Input QCSchema <==

--------------------------------------------------------------------------
{'driver': 'energy',
 'extras': {'psiapi': True, 'wfn_qcvars_only': True},
 'id': None,
 'keywords': {'function_kwargs': {}},
 'model': {'basis': 'aug-cc-pvdz', 'method': 'scf'},
 'molecule': {'atom_labels': ['1', '2', '3', '5', '6', '7'],
              'atomic_numbers': [8, 1, 1, 8, 1, 1],
              'fix_com': True,
              'fix_orientation': True,
              'fragment_charges': [0.0, 0.0],
              'fragment_multiplicities': [1, 1],
              'fragments': [[0, 1, 2], [3, 4, 5]],
              'geometry': [3.08214385307306e-17, -0.05118338925575477, -2.7381048180397762, 3.08214385307306e-17,
                           -0.05118338925575477, -0.8483786925819481, 3.08214385307306e-17, 1.7781852282291912,
                           -3.211893051957708, 3.08214385307306e-17, -0.05118338925575477, 2.5531283332421424,
                           0.8182754154208088, 1.3661112048376158, 3.4979913959710567, -0.8182754154208098,
                           -1.4684779833491268, 3.497991395971056],
              'mass_numbers': [16, 1, 1, 16, 1, 1],
              'masses': [15.99491461957, 1.00782503223, 1.00782503223, 15.99491461957, 1.00782503223, 1.00782503223],
              'molecular_charge': 0.0,
              'molecular_multiplicity': 1,
              'name': 'H4O2',
              'provenance': {'creator': 'QCElemental',
                             'routine': 'qcelemental.molparse.from_string',
                             'version': 'v0.25.0'},
              'real': [True, True, True, False, False, False],
              'schema_name': 'qcschema_molecule',
              'schema_version': 2,
              'symbols': ['O', 'H', 'H', 'O', 'H', 'H'],
              'validated': True},
 'protocols': {'stdout': True},
 'provenance': {'creator': 'QCElemental', 'routine': 'qcelemental.models.results', 'version': 'v0.25.0'},
 'schema_name': 'qcschema_input',
 'schema_version': 1}
--------------------------------------------------------------------------

Scratch directory: C:\Users\64292\AppData\Local\Temp/

*** tstart() called on Lenovo-Y540-Zoha
*** at Tue Sep 27 18:40:24 2022

   => Loading Basis Set <=

    Name: AUG-CC-PVDZ
    Role: ORBITAL
    Keyword: BASIS
    atoms 1, 4     entry O          line   254 file C:\Users\64292\Anaconda3\envs\qm-tools\lib\share\psi4\basis\aug-cc-pvdz.gbs 
    atoms 2-3, 5-6 entry H          line    40 file C:\Users\64292\Anaconda3\envs\qm-tools\lib\share\psi4\basis\aug-cc-pvdz.gbs 


         ---------------------------------------------------------
                                   SCF
               by Justin Turney, Rob Parrish, Andy Simmonett
                          and Daniel G. A. Smith
                              RHF Reference
                        1 Threads,    476 MiB Core
         ---------------------------------------------------------

  ==> Geometry <==

    Molecular point group: c1
    Full point group: C1

    Geometry (in Bohr), charge = 0, multiplicity = 1:

       Center              X                  Y                   Z               Mass       
    ------------   -----------------  -----------------  -----------------  -----------------
         O            0.000000000000    -0.051183389256    -2.738104818040    15.994914619570
         H            0.000000000000    -0.051183389256    -0.848378692582     1.007825032230
         H            0.000000000000     1.778185228229    -3.211893051958     1.007825032230
      Gh(O)           0.000000000000    -0.051183389256     2.553128333242    15.994914619570
      Gh(H)           0.818275415421     1.366111204838     3.497991395971     1.007825032230
      Gh(H)          -0.818275415421    -1.468477983349     3.497991395971     1.007825032230

  Running in c1 symmetry.

  Rotational constants: A =      7.05064  B =      0.23097  C =      0.22453 [cm^-1]
  Rotational constants: A = 211372.90765  B =   6924.43845  C =   6731.27471 [MHz]
  Nuclear repulsion =    8.801420354575150

  Charge       = 0
  Multiplicity = 1
  Electrons    = 10
  Nalpha       = 5
  Nbeta        = 5

  ==> Algorithm <==

  SCF Algorithm Type is DF.
  DIIS enabled.
  MOM disabled.
  Fractional occupation disabled.
  Guess Type is SAD.
  Energy threshold   = 1.00e-06
  Density threshold  = 1.00e-06
  Integral threshold = 1.00e-12

  ==> Primary Basis <==

  Basis Set: AUG-CC-PVDZ
    Blend: AUG-CC-PVDZ
    Number of shells: 38
    Number of basis functions: 82
    Number of Cartesian functions: 86
    Spherical Harmonics?: true
    Max angular momentum: 2

   => Loading Basis Set <=

    Name: (AUG-CC-PVDZ AUX)
    Role: JKFIT
    Keyword: DF_BASIS_SCF
    atoms 1, 4     entry O          line   270 file C:\Users\64292\Anaconda3\envs\qm-tools\lib\share\psi4\basis\aug-cc-pvdz-jkfit.gbs 
    atoms 2-3, 5-6 entry H          line    70 file C:\Users\64292\Anaconda3\envs\qm-tools\lib\share\psi4\basis\aug-cc-pvdz-jkfit.gbs 

  ==> Integral Setup <==

  DFHelper Memory: AOs need 0.017 GiB; user supplied 0.349 GiB. Using in-core AOs.

  ==> MemDFJK: Density-Fitted J/K Matrices <==

    J tasked:                   Yes
    K tasked:                   Yes
    wK tasked:                   No
    OpenMP threads:               1
    Memory [MiB]:               357
    Algorithm:                 Core
    Schwarz Cutoff:           1E-12
    Mask sparsity (%):       0.0000
    Fitting Condition:        1E-10

   => Auxiliary Basis Set <=

  Basis Set: (AUG-CC-PVDZ AUX)
    Blend: AUG-CC-PVDZ-JKFIT
    Number of shells: 104
    Number of basis functions: 300
    Number of Cartesian functions: 342
    Spherical Harmonics?: true
    Max angular momentum: 3

  Minimum eigenvalue in the overlap matrix is 1.8142049680E-03.
  Reciprocal condition number of the overlap matrix is 2.3834992024E-04.
    Using symmetric orthogonalization.

  ==> Pre-Iterations <==

  SCF Guess: Superposition of Atomic Densities via on-the-fly atomic UHF (no occupation information).

   -------------------------
    Irrep   Nso     Nmo    
   -------------------------
     A         82      82 
   -------------------------
    Total      82      82
   -------------------------

  ==> Iterations <==

                           Total Energy        Delta E     RMS |[F,P]|

   @DF-RHF iter SAD:   -75.41487081378310   -7.54149e+01   0.00000e+00 
   @DF-RHF iter   1:   -75.94942804453116   -5.34557e-01   5.50724e-03 DIIS/ADIIS
   @DF-RHF iter   2:   -76.00131041207837   -5.18824e-02   3.77716e-03 DIIS/ADIIS
   @DF-RHF iter   3:   -76.03527298229517   -3.39626e-02   2.81182e-04 DIIS/ADIIS
   @DF-RHF iter   4:   -76.03572644142636   -4.53459e-04   6.60499e-05 DIIS
   @DF-RHF iter   5:   -76.03575662042213   -3.01790e-05   1.56513e-05 DIIS
   @DF-RHF iter   6:   -76.03575919889380   -2.57847e-06   3.09733e-06 DIIS
   @DF-RHF iter   7:   -76.03575930267368   -1.03780e-07   5.06339e-07 DIIS
  Energy and wave function converged.


  ==> Post-Iterations <==

    Orbital Energies [Eh]
    ---------------------

    Doubly Occupied:                                                      

       1A    -20.584221     2A     -1.335637     3A     -0.696492  
       4A     -0.577356     5A     -0.506055  

    Virtual:                                                              

       6A      0.024896     7A      0.050014     8A      0.059307  
       9A      0.083252    10A      0.136211    11A      0.145095  
      12A      0.182654    13A      0.197434    14A      0.222375  
      15A      0.227042    16A      0.231142    17A      0.273334  
      18A      0.332049    19A      0.359524    20A      0.366172  
      21A      0.396997    22A      0.407559    23A      0.415816  
      24A      0.441196    25A      0.478129    26A      0.479713  
      27A      0.486905    28A      0.509256    29A      0.571743  
      30A      0.589250    31A      0.644412    32A      0.651334  
      33A      0.768452    34A      0.865004    35A      0.926526  
      36A      0.971784    37A      1.035991    38A      1.112000  
      39A      1.156241    40A      1.178686    41A      1.185331  
      42A      1.205751    43A      1.287300    44A      1.294327  
      45A      1.307331    46A      1.331316    47A      1.413379  
      48A      1.458086    49A      1.518816    50A      1.579805  
      51A      1.770829    52A      1.987239    53A      2.008224  
      54A      2.060202    55A      2.113716    56A      2.321394  
      57A      2.366023    58A      2.382654    59A      2.390401  
      60A      2.460914    61A      2.577970    62A      2.665385  
      63A      2.727355    64A      2.979055    65A      2.995998  
      66A      3.484828    67A      3.676192    68A      3.708737  
      69A      3.730185    70A      3.977269    71A      4.005708  
      72A      4.083214    73A      4.337198    74A      4.918296  
      75A      4.932266    76A      5.047596    77A      5.326885  
      78A      5.394183    79A      5.603950    80A      6.462841  
      81A      6.803880    82A     33.531739  

    Final Occupation by Irrep:
              A 
    DOCC [     5 ]

  @DF-RHF Final Energy:   -76.03575930267368

   => Energetics <=

    Nuclear Repulsion Energy =              8.8014203545751499
    One-Electron Energy =                -122.2748165067697528
    Two-Electron Energy =                  37.4376368495209277
    Total Energy =                        -76.0357593026736680

Computation Completed


Properties will be evaluated at   0.000000,   0.000000,   0.000000 [a0]

Properties computed using the SCF density matrix


 Multipole Moments:

 ------------------------------------------------------------------------------------
     Multipole            Electronic (a.u.)      Nuclear  (a.u.)        Total (a.u.)
 ------------------------------------------------------------------------------------

 L = 1.  Multiply by 2.5417464519 to convert [e a0] to [Debye]
 Dipole X            :          0.0001448            0.0000000            0.0001448
 Dipole Y            :         -0.6855373            1.3175347            0.6319974
 Dipole Z            :         26.4540764          -25.9651103            0.4889661
 Magnitude           :                                                    0.7990674

 ------------------------------------------------------------------------------------

*** tstop() called on Lenovo-Y540-Zoha at Tue Sep 27 18:40:25 2022
Module time:
	user time   =        nan seconds =        nan minutes
	system time =        nan seconds =        nan minutes
	total time  =          1 seconds =       0.02 minutes
Total time:
	user time   =        nan seconds =        nan minutes
	system time =        nan seconds =        nan minutes
	total time  =        844 seconds =      14.07 minutes

    Psi4 stopped on: Tuesday, 27 September 2022 06:40PM
    Psi4 wall time for execution: 0:00:01.03


    -----------------------------------------------------------------------
          Psi4: An Open-Source Ab Initio Electronic Structure Package
                               Psi4 1.6.1 release

                         Git: Rev {HEAD} 5b9f6e3 


    D. G. A. Smith, L. A. Burns, A. C. Simmonett, R. M. Parrish,
    M. C. Schieber, R. Galvelis, P. Kraus, H. Kruse, R. Di Remigio,
    A. Alenaizan, A. M. James, S. Lehtola, J. P. Misiewicz, M. Scheurer,
    R. A. Shaw, J. B. Schriber, Y. Xie, Z. L. Glick, D. A. Sirianni,
    J. S. O'Brien, J. M. Waldrop, A. Kumar, E. G. Hohenstein,
    B. P. Pritchard, B. R. Brooks, H. F. Schaefer III, A. Yu. Sokolov,
    K. Patkowski, A. E. DePrince III, U. Bozkaya, R. A. King,
    F. A. Evangelista, J. M. Turney, T. D. Crawford, C. D. Sherrill,
    J. Chem. Phys. 152(18) 184108 (2020). https://doi.org/10.1063/5.0006002

                            Additional Code Authors
    E. T. Seidl, C. L. Janssen, E. F. Valeev, M. L. Leininger,
    J. F. Gonthier, R. M. Richard, H. R. McAlexander, M. Saitow, X. Wang,
    P. Verma, M. H. Lechner, and A. Jiang

             Previous Authors, Complete List of Code Contributors,
                       and Citations for Specific Modules
    https://github.com/psi4/psi4/blob/master/codemeta.json
    https://github.com/psi4/psi4/graphs/contributors
    http://psicode.org/psi4manual/master/introduction.html#citing-psifour

    -----------------------------------------------------------------------


    Psi4 started on: Tuesday, 27 September 2022 06:25PM

    Process ID: 10544
    Host:       Lenovo-Y540-Zoha
    PSIDATADIR: C:\Users\64292\Anaconda3\envs\qm-tools\lib\share\psi4
    Memory:     476.8 MiB
    Threads:    1
    
  ==> Input QCSchema <==

--------------------------------------------------------------------------
{'driver': 'energy',
 'extras': {'psiapi': True, 'wfn_qcvars_only': True},
 'id': None,
 'keywords': {'function_kwargs': {}},
 'model': {'basis': 'aug-cc-pvdz', 'method': 'scf'},
 'molecule': {'atom_labels': ['1', '2', '3', '5', '6', '7'],
              'atomic_numbers': [8, 1, 1, 8, 1, 1],
              'fix_com': True,
              'fix_orientation': True,
              'fragment_charges': [0.0, 0.0],
              'fragment_multiplicities': [1, 1],
              'fragments': [[0, 1, 2], [3, 4, 5]],
              'geometry': [3.08214385307306e-17, -0.05118338925575477, -2.7381048180397762, 3.08214385307306e-17,
                           -0.05118338925575477, -0.8483786925819481, 3.08214385307306e-17, 1.7781852282291912,
                           -3.211893051957708, 3.08214385307306e-17, -0.05118338925575477, 2.5531283332421424,
                           0.8182754154208088, 1.3661112048376158, 3.4979913959710567, -0.8182754154208098,
                           -1.4684779833491268, 3.497991395971056],
              'mass_numbers': [16, 1, 1, 16, 1, 1],
              'masses': [15.99491461957, 1.00782503223, 1.00782503223, 15.99491461957, 1.00782503223, 1.00782503223],
              'molecular_charge': 0.0,
              'molecular_multiplicity': 1,
              'name': 'H4O2',
              'provenance': {'creator': 'QCElemental',
                             'routine': 'qcelemental.molparse.from_string',
                             'version': 'v0.25.0'},
              'real': [True, True, True, True, True, True],
              'schema_name': 'qcschema_molecule',
              'schema_version': 2,
              'symbols': ['O', 'H', 'H', 'O', 'H', 'H'],
              'validated': True},
 'protocols': {'stdout': True},
 'provenance': {'creator': 'QCElemental', 'routine': 'qcelemental.models.results', 'version': 'v0.25.0'},
 'schema_name': 'qcschema_input',
 'schema_version': 1}
--------------------------------------------------------------------------

Scratch directory: C:\Users\64292\AppData\Local\Temp/

*** tstart() called on Lenovo-Y540-Zoha
*** at Tue Sep 27 18:40:25 2022

   => Loading Basis Set <=

    Name: AUG-CC-PVDZ
    Role: ORBITAL
    Keyword: BASIS
    atoms 1, 4     entry O          line   254 file C:\Users\64292\Anaconda3\envs\qm-tools\lib\share\psi4\basis\aug-cc-pvdz.gbs 
    atoms 2-3, 5-6 entry H          line    40 file C:\Users\64292\Anaconda3\envs\qm-tools\lib\share\psi4\basis\aug-cc-pvdz.gbs 


         ---------------------------------------------------------
                                   SCF
               by Justin Turney, Rob Parrish, Andy Simmonett
                          and Daniel G. A. Smith
                              RHF Reference
                        1 Threads,    476 MiB Core
         ---------------------------------------------------------

  ==> Geometry <==

    Molecular point group: c1
    Full point group: C1

    Geometry (in Bohr), charge = 0, multiplicity = 1:

       Center              X                  Y                   Z               Mass       
    ------------   -----------------  -----------------  -----------------  -----------------
         O            0.000000000000    -0.051183389256    -2.738104818040    15.994914619570
         H            0.000000000000    -0.051183389256    -0.848378692582     1.007825032230
         H            0.000000000000     1.778185228229    -3.211893051958     1.007825032230
         O            0.000000000000    -0.051183389256     2.553128333242    15.994914619570
         H            0.818275415421     1.366111204838     3.497991395971     1.007825032230
         H           -0.818275415421    -1.468477983349     3.497991395971     1.007825032230

  Running in c1 symmetry.

  Rotational constants: A =      7.05064  B =      0.23097  C =      0.22453 [cm^-1]
  Rotational constants: A = 211372.90765  B =   6924.43845  C =   6731.27471 [MHz]
  Nuclear repulsion =   36.537166527374779

  Charge       = 0
  Multiplicity = 1
  Electrons    = 20
  Nalpha       = 10
  Nbeta        = 10

  ==> Algorithm <==

  SCF Algorithm Type is DF.
  DIIS enabled.
  MOM disabled.
  Fractional occupation disabled.
  Guess Type is SAD.
  Energy threshold   = 1.00e-06
  Density threshold  = 1.00e-06
  Integral threshold = 1.00e-12

  ==> Primary Basis <==

  Basis Set: AUG-CC-PVDZ
    Blend: AUG-CC-PVDZ
    Number of shells: 38
    Number of basis functions: 82
    Number of Cartesian functions: 86
    Spherical Harmonics?: true
    Max angular momentum: 2

   => Loading Basis Set <=

    Name: (AUG-CC-PVDZ AUX)
    Role: JKFIT
    Keyword: DF_BASIS_SCF
    atoms 1, 4     entry O          line   270 file C:\Users\64292\Anaconda3\envs\qm-tools\lib\share\psi4\basis\aug-cc-pvdz-jkfit.gbs 
    atoms 2-3, 5-6 entry H          line    70 file C:\Users\64292\Anaconda3\envs\qm-tools\lib\share\psi4\basis\aug-cc-pvdz-jkfit.gbs 

  ==> Integral Setup <==

  DFHelper Memory: AOs need 0.017 GiB; user supplied 0.349 GiB. Using in-core AOs.

  ==> MemDFJK: Density-Fitted J/K Matrices <==

    J tasked:                   Yes
    K tasked:                   Yes
    wK tasked:                   No
    OpenMP threads:               1
    Memory [MiB]:               357
    Algorithm:                 Core
    Schwarz Cutoff:           1E-12
    Mask sparsity (%):       0.0000
    Fitting Condition:        1E-10

   => Auxiliary Basis Set <=

  Basis Set: (AUG-CC-PVDZ AUX)
    Blend: AUG-CC-PVDZ-JKFIT
    Number of shells: 104
    Number of basis functions: 300
    Number of Cartesian functions: 342
    Spherical Harmonics?: true
    Max angular momentum: 3

  Minimum eigenvalue in the overlap matrix is 1.8142049680E-03.
  Reciprocal condition number of the overlap matrix is 2.3834992024E-04.
    Using symmetric orthogonalization.

  ==> Pre-Iterations <==

  SCF Guess: Superposition of Atomic Densities via on-the-fly atomic UHF (no occupation information).

   -------------------------
    Irrep   Nso     Nmo    
   -------------------------
     A         82      82 
   -------------------------
    Total      82      82
   -------------------------

  ==> Iterations <==

                           Total Energy        Delta E     RMS |[F,P]|

   @DF-RHF iter SAD:  -150.92768307087113   -1.50928e+02   0.00000e+00 
   @DF-RHF iter   1:  -151.91301455478734   -9.85331e-01   7.46676e-03 DIIS/ADIIS
   @DF-RHF iter   2:  -152.01364124955774   -1.00627e-01   4.86029e-03 DIIS/ADIIS
   @DF-RHF iter   3:  -152.06949549694843   -5.58542e-02   4.19544e-04 DIIS/ADIIS
   @DF-RHF iter   4:  -152.07049546921675   -9.99972e-04   9.57025e-05 DIIS
   @DF-RHF iter   5:  -152.07055284905039   -5.73798e-05   3.76838e-05 DIIS
   @DF-RHF iter   6:  -152.07055997690813   -7.12786e-06   1.28952e-05 DIIS
   @DF-RHF iter   7:  -152.07056111538469   -1.13848e-06   2.45353e-06 DIIS
   @DF-RHF iter   8:  -152.07056118139747   -6.60128e-08   4.82394e-07 DIIS
  Energy and wave function converged.


  ==> Post-Iterations <==

    Orbital Energies [Eh]
    ---------------------

    Doubly Occupied:                                                      

       1A    -20.605823     2A    -20.540733     3A     -1.360827  
       4A     -1.296827     5A     -0.752795     6A     -0.674776  
       7A     -0.587594     8A     -0.534762     9A     -0.528284  
      10A     -0.466938  

    Virtual:                                                              

      11A      0.024301    12A      0.048868    13A      0.060110  
      14A      0.091269    15A      0.173107    16A      0.177511  
      17A      0.199938    18A      0.212496    19A      0.235247  
      20A      0.237366    21A      0.248961    22A      0.276050  
      23A      0.305756    24A      0.312716    25A      0.350353  
      26A      0.371226    27A      0.418491    28A      0.436883  
      29A      0.467772    30A      0.486398    31A      0.517764  
      32A      0.539173    33A      0.544659    34A      0.598288  
      35A      0.630036    36A      0.650621    37A      0.676232  
      38A      0.790019    39A      0.860975    40A      0.876539  
      41A      0.953976    42A      0.977572    43A      1.113293  
      44A      1.118018    45A      1.145597    46A      1.189499  
      47A      1.212368    48A      1.226711    49A      1.350540  
      50A      1.450701    51A      1.466665    52A      1.521979  
      53A      1.545118    54A      1.635261    55A      1.645848  
      56A      1.947265    57A      2.009108    58A      2.020512  
      59A      2.032508    60A      2.053821    61A      2.060176  
      62A      2.181727    63A      2.388860    64A      2.409840  
      65A      2.480752    66A      2.501849    67A      2.546077  
      68A      2.765115    69A      2.838218    70A      2.863655  
      71A      3.025555    72A      3.055502    73A      3.668952  
      74A      3.693104    75A      3.713441    76A      3.746835  
      77A      3.772003    78A      3.836134    79A      4.097776  
      80A      4.119403    81A      4.177936    82A      4.393990  

    Final Occupation by Irrep:
              A 
    DOCC [    10 ]

  @DF-RHF Final Energy:  -152.07056118139747

   => Energetics <=

    Nuclear Repulsion Energy =             36.5371665273747794
    One-Electron Energy =                -282.5167229394856463
    Two-Electron Energy =                  93.9089952307134013
    Total Energy =                       -152.0705611813974656

Computation Completed


Properties will be evaluated at   0.000000,   0.000000,   0.000000 [a0]

Properties computed using the SCF density matrix


 Multipole Moments:

 ------------------------------------------------------------------------------------
     Multipole            Electronic (a.u.)      Nuclear  (a.u.)        Total (a.u.)
 ------------------------------------------------------------------------------------

 L = 1.  Multiply by 2.5417464519 to convert [e a0] to [Debye]
 Dipole X            :         -0.0015417           -0.0000000           -0.0015417
 Dipole Y            :         -0.2085061            0.8057008            0.5971947
 Dipole Z            :          0.0294090            1.4558992            1.4853081
 Magnitude           :                                                    1.6008698

 ------------------------------------------------------------------------------------

*** tstop() called on Lenovo-Y540-Zoha at Tue Sep 27 18:40:26 2022
Module time:
	user time   =        nan seconds =        nan minutes
	system time =        nan seconds =        nan minutes
	total time  =          1 seconds =       0.02 minutes
Total time:
	user time   =        nan seconds =        nan minutes
	system time =        nan seconds =        nan minutes
	total time  =        845 seconds =      14.08 minutes

    Psi4 stopped on: Tuesday, 27 September 2022 06:40PM
    Psi4 wall time for execution: 0:00:01.06


  //>>>>>>>>>>>>>>>>>>>>>>>>>>>>>>>>>>>//
  //          ManyBody Results         //
  //<<<<<<<<<<<<<<<<<<<<<<<<<<<<<<<<<<<//


   ==> N-Body: Counterpoise Corrected (CP) energies <==

        n-Body     Total Energy            Interaction Energy                          N-body Contribution to Interaction Energy
                   [Eh]                    [Eh]                  [kcal/mol]            [Eh]                  [kcal/mol]
             1  N/A                         0.000000000000        0.000000000000        0.000000000000        0.000000000000
  FULL/RTN   2  N/A                        -0.004754906976       -2.983749174240       -0.004754906976       -2.983749174240

