
Scratch directory: C:\Users\64292\AppData\Local\Temp/

  //>>>>>>>>>>>>>>>>>>>>>>>>>>>>>>>>>>>>>//
  // ManyBody Setup: N-Body Levels [1, 2]//
  //<<<<<<<<<<<<<<<<<<<<<<<<<<<<<<<<<<<<<//

        Number of 1-body computations:     2
        Number of 2-body computations:     1

    -----------------------------------------------------------------------
          Psi4: An Open-Source Ab Initio Electronic Structure Package
                               Psi4 1.6.1 release

                         Git: Rev {HEAD} 5b9f6e3 


    D. G. A. Smith, L. A. Burns, A. C. Simmonett, R. M. Parrish,
    M. C. Schieber, R. Galvelis, P. Kraus, H. Kruse, R. Di Remigio,
    A. Alenaizan, A. M. James, S. Lehtola, J. P. Misiewicz, M. Scheurer,
    R. A. Shaw, J. B. Schriber, Y. Xie, Z. L. Glick, D. A. Sirianni,
    J. S. O'Brien, J. M. Waldrop, A. Kumar, E. G. Hohenstein,
    B. P. Pritchard, B. R. Brooks, H. F. Schaefer III, A. Yu. Sokolov,
    K. Patkowski, A. E. DePrince III, U. Bozkaya, R. A. King,
    F. A. Evangelista, J. M. Turney, T. D. Crawford, C. D. Sherrill,
    J. Chem. Phys. 152(18) 184108 (2020). https://doi.org/10.1063/5.0006002

                            Additional Code Authors
    E. T. Seidl, C. L. Janssen, E. F. Valeev, M. L. Leininger,
    J. F. Gonthier, R. M. Richard, H. R. McAlexander, M. Saitow, X. Wang,
    P. Verma, M. H. Lechner, and A. Jiang

             Previous Authors, Complete List of Code Contributors,
                       and Citations for Specific Modules
    https://github.com/psi4/psi4/blob/master/codemeta.json
    https://github.com/psi4/psi4/graphs/contributors
    http://psicode.org/psi4manual/master/introduction.html#citing-psifour

    -----------------------------------------------------------------------


    Psi4 started on: Tuesday, 27 September 2022 06:25PM

    Process ID: 10544
    Host:       Lenovo-Y540-Zoha
    PSIDATADIR: C:\Users\64292\Anaconda3\envs\qm-tools\lib\share\psi4
    Memory:     476.8 MiB
    Threads:    1
    
  ==> Input QCSchema <==

--------------------------------------------------------------------------
{'driver': 'energy',
 'extras': {'psiapi': True, 'wfn_qcvars_only': True},
 'id': None,
 'keywords': {'function_kwargs': {}},
 'model': {'basis': 'aug-cc-pvdz', 'method': 'scf'},
 'molecule': {'atom_labels': ['1', '2', '3', '5', '6', '7'],
              'atomic_numbers': [8, 1, 1, 8, 1, 1],
              'fix_com': True,
              'fix_orientation': True,
              'fragment_charges': [0.0, 0.0],
              'fragment_multiplicities': [1, 1],
              'fragments': [[0, 1, 2], [3, 4, 5]],
              'geometry': [3.6985726236876735e-17, -0.05118338925575477, -3.116050043131342, 3.6985726236876735e-17,
                           -0.05118338925575477, -1.2263239176735146, 3.6985726236876735e-17, 1.7781852282291912,
                           -3.5898382770492736, 3.6985726236876735e-17, -0.05118338925575477, 2.931073558333708,
                           -1.4172945940933717, -0.8694588046765649, 3.875936621062622, 1.4172945940933703,
                           0.7670920261650541, 3.875936621062623],
              'mass_numbers': [16, 1, 1, 16, 1, 1],
              'masses': [15.99491461957, 1.00782503223, 1.00782503223, 15.99491461957, 1.00782503223, 1.00782503223],
              'molecular_charge': 0.0,
              'molecular_multiplicity': 1,
              'name': 'H4O2',
              'provenance': {'creator': 'QCElemental',
                             'routine': 'qcelemental.molparse.from_string',
                             'version': 'v0.25.0'},
              'real': [False, False, False, True, True, True],
              'schema_name': 'qcschema_molecule',
              'schema_version': 2,
              'symbols': ['O', 'H', 'H', 'O', 'H', 'H'],
              'validated': True},
 'protocols': {'stdout': True},
 'provenance': {'creator': 'QCElemental', 'routine': 'qcelemental.models.results', 'version': 'v0.25.0'},
 'schema_name': 'qcschema_input',
 'schema_version': 1}
--------------------------------------------------------------------------

Scratch directory: C:\Users\64292\AppData\Local\Temp/

*** tstart() called on Lenovo-Y540-Zoha
*** at Tue Sep 27 18:45:25 2022

   => Loading Basis Set <=

    Name: AUG-CC-PVDZ
    Role: ORBITAL
    Keyword: BASIS
    atoms 1, 4     entry O          line   254 file C:\Users\64292\Anaconda3\envs\qm-tools\lib\share\psi4\basis\aug-cc-pvdz.gbs 
    atoms 2-3, 5-6 entry H          line    40 file C:\Users\64292\Anaconda3\envs\qm-tools\lib\share\psi4\basis\aug-cc-pvdz.gbs 


         ---------------------------------------------------------
                                   SCF
               by Justin Turney, Rob Parrish, Andy Simmonett
                          and Daniel G. A. Smith
                              RHF Reference
                        1 Threads,    476 MiB Core
         ---------------------------------------------------------

  ==> Geometry <==

    Molecular point group: c1
    Full point group: C1

    Geometry (in Bohr), charge = 0, multiplicity = 1:

       Center              X                  Y                   Z               Mass       
    ------------   -----------------  -----------------  -----------------  -----------------
      Gh(O)           0.000000000000    -0.051183389256    -3.116050043131    15.994914619570
      Gh(H)           0.000000000000    -0.051183389256    -1.226323917674     1.007825032230
      Gh(H)           0.000000000000     1.778185228229    -3.589838277049     1.007825032230
         O            0.000000000000    -0.051183389256     2.931073558334    15.994914619570
         H           -1.417294594093    -0.869458804677     3.875936621063     1.007825032230
         H            1.417294594093     0.767092026165     3.875936621063     1.007825032230

  Running in c1 symmetry.

  Rotational constants: A =      7.04471  B =      0.17729  C =      0.17487 [cm^-1]
  Rotational constants: A = 211195.08895  B =   5314.89401  C =   5242.39853 [MHz]
  Nuclear repulsion =    8.772355975749338

  Charge       = 0
  Multiplicity = 1
  Electrons    = 10
  Nalpha       = 5
  Nbeta        = 5

  ==> Algorithm <==

  SCF Algorithm Type is DF.
  DIIS enabled.
  MOM disabled.
  Fractional occupation disabled.
  Guess Type is SAD.
  Energy threshold   = 1.00e-06
  Density threshold  = 1.00e-06
  Integral threshold = 1.00e-12

  ==> Primary Basis <==

  Basis Set: AUG-CC-PVDZ
    Blend: AUG-CC-PVDZ
    Number of shells: 38
    Number of basis functions: 82
    Number of Cartesian functions: 86
    Spherical Harmonics?: true
    Max angular momentum: 2

   => Loading Basis Set <=

    Name: (AUG-CC-PVDZ AUX)
    Role: JKFIT
    Keyword: DF_BASIS_SCF
    atoms 1, 4     entry O          line   270 file C:\Users\64292\Anaconda3\envs\qm-tools\lib\share\psi4\basis\aug-cc-pvdz-jkfit.gbs 
    atoms 2-3, 5-6 entry H          line    70 file C:\Users\64292\Anaconda3\envs\qm-tools\lib\share\psi4\basis\aug-cc-pvdz-jkfit.gbs 

  ==> Integral Setup <==

  DFHelper Memory: AOs need 0.017 GiB; user supplied 0.349 GiB. Using in-core AOs.

  ==> MemDFJK: Density-Fitted J/K Matrices <==

    J tasked:                   Yes
    K tasked:                   Yes
    wK tasked:                   No
    OpenMP threads:               1
    Memory [MiB]:               357
    Algorithm:                 Core
    Schwarz Cutoff:           1E-12
    Mask sparsity (%):       0.0000
    Fitting Condition:        1E-10

   => Auxiliary Basis Set <=

  Basis Set: (AUG-CC-PVDZ AUX)
    Blend: AUG-CC-PVDZ-JKFIT
    Number of shells: 104
    Number of basis functions: 300
    Number of Cartesian functions: 342
    Spherical Harmonics?: true
    Max angular momentum: 3

  Minimum eigenvalue in the overlap matrix is 2.1545205948E-03.
  Reciprocal condition number of the overlap matrix is 3.0453842699E-04.
    Using symmetric orthogonalization.

  ==> Pre-Iterations <==

  SCF Guess: Superposition of Atomic Densities via on-the-fly atomic UHF (no occupation information).

   -------------------------
    Irrep   Nso     Nmo    
   -------------------------
     A         82      82 
   -------------------------
    Total      82      82
   -------------------------

  ==> Iterations <==

                           Total Energy        Delta E     RMS |[F,P]|

   @DF-RHF iter SAD:   -75.40236282171684   -7.54024e+01   0.00000e+00 
   @DF-RHF iter   1:   -75.94509317098839   -5.42730e-01   5.50840e-03 DIIS/ADIIS
   @DF-RHF iter   2:   -75.99627795686440   -5.11848e-02   3.73025e-03 DIIS/ADIIS
   @DF-RHF iter   3:   -76.02936978875476   -3.30918e-02   2.79153e-04 DIIS/ADIIS
   @DF-RHF iter   4:   -76.02984078152301   -4.70993e-04   6.67483e-05 DIIS
   @DF-RHF iter   5:   -76.02987337798717   -3.25965e-05   1.62933e-05 DIIS
   @DF-RHF iter   6:   -76.02987645226843   -3.07428e-06   3.49669e-06 DIIS
   @DF-RHF iter   7:   -76.02987660721929   -1.54951e-07   6.42259e-07 DIIS
  Energy and wave function converged.


  ==> Post-Iterations <==

    Orbital Energies [Eh]
    ---------------------

    Doubly Occupied:                                                      

       1A    -20.575765     2A     -1.325839     3A     -0.721190  
       4A     -0.548245     5A     -0.500692  

    Virtual:                                                              

       6A      0.032656     7A      0.053519     8A      0.055909  
       9A      0.080965    10A      0.164067    11A      0.170501  
      12A      0.181458    13A      0.197608    14A      0.211885  
      15A      0.224699    16A      0.236849    17A      0.252822  
      18A      0.311974    19A      0.327694    20A      0.371488  
      21A      0.399743    22A      0.432914    23A      0.452226  
      24A      0.459663    25A      0.498574    26A      0.519741  
      27A      0.528908    28A      0.545317    29A      0.564582  
      30A      0.610570    31A      0.648467    32A      0.658801  
      33A      0.700304    34A      0.857051    35A      0.877986  
      36A      0.928491    37A      0.943127    38A      1.124667  
      39A      1.146543    40A      1.159233    41A      1.200986  
      42A      1.240267    43A      1.280635    44A      1.334173  
      45A      1.365095    46A      1.390180    47A      1.427205  
      48A      1.463450    49A      1.539767    50A      1.569861  
      51A      1.858406    52A      1.988976    53A      2.049326  
      54A      2.055481    55A      2.085194    56A      2.272884  
      57A      2.366938    58A      2.407795    59A      2.450242  
      60A      2.470364    61A      2.527328    62A      2.578848  
      63A      2.704607    64A      2.799026    65A      2.918924  
      66A      3.422818    67A      3.696779    68A      3.701005  
      69A      3.806660    70A      3.904630    71A      4.076936  
      72A      4.144312    73A      4.183577    74A      4.910937  
      75A      4.956412    76A      4.997652    77A      5.167729  
      78A      5.482068    79A      5.663530    80A      6.415862  
      81A      6.848941    82A     33.567709  

    Final Occupation by Irrep:
              A 
    DOCC [     5 ]

  @DF-RHF Final Energy:   -76.02987660721929

   => Energetics <=

    Nuclear Repulsion Energy =              8.7723559757493383
    One-Electron Energy =                -122.2609662098533505
    Two-Electron Energy =                  37.4587336268847224
    Total Energy =                        -76.0298766072192933

Computation Completed


Properties will be evaluated at   0.000000,   0.000000,   0.000000 [a0]

Properties computed using the SCF density matrix


 Multipole Moments:

 ------------------------------------------------------------------------------------
     Multipole            Electronic (a.u.)      Nuclear  (a.u.)        Total (a.u.)
 ------------------------------------------------------------------------------------

 L = 1.  Multiply by 2.5417464519 to convert [e a0] to [Debye]
 Dipole X            :          0.0000927           -0.0000000            0.0000927
 Dipole Y            :          0.5116274           -0.5118339           -0.0002065
 Dipole Z            :        -30.5141794           31.2004617            0.6862823
 Magnitude           :                                                    0.6862823

 ------------------------------------------------------------------------------------

*** tstop() called on Lenovo-Y540-Zoha at Tue Sep 27 18:45:26 2022
Module time:
	user time   =        nan seconds =        nan minutes
	system time =        nan seconds =        nan minutes
	total time  =          1 seconds =       0.02 minutes
Total time:
	user time   =        nan seconds =        nan minutes
	system time =        nan seconds =        nan minutes
	total time  =       1145 seconds =      19.08 minutes

    Psi4 stopped on: Tuesday, 27 September 2022 06:45PM
    Psi4 wall time for execution: 0:00:01.06


    -----------------------------------------------------------------------
          Psi4: An Open-Source Ab Initio Electronic Structure Package
                               Psi4 1.6.1 release

                         Git: Rev {HEAD} 5b9f6e3 


    D. G. A. Smith, L. A. Burns, A. C. Simmonett, R. M. Parrish,
    M. C. Schieber, R. Galvelis, P. Kraus, H. Kruse, R. Di Remigio,
    A. Alenaizan, A. M. James, S. Lehtola, J. P. Misiewicz, M. Scheurer,
    R. A. Shaw, J. B. Schriber, Y. Xie, Z. L. Glick, D. A. Sirianni,
    J. S. O'Brien, J. M. Waldrop, A. Kumar, E. G. Hohenstein,
    B. P. Pritchard, B. R. Brooks, H. F. Schaefer III, A. Yu. Sokolov,
    K. Patkowski, A. E. DePrince III, U. Bozkaya, R. A. King,
    F. A. Evangelista, J. M. Turney, T. D. Crawford, C. D. Sherrill,
    J. Chem. Phys. 152(18) 184108 (2020). https://doi.org/10.1063/5.0006002

                            Additional Code Authors
    E. T. Seidl, C. L. Janssen, E. F. Valeev, M. L. Leininger,
    J. F. Gonthier, R. M. Richard, H. R. McAlexander, M. Saitow, X. Wang,
    P. Verma, M. H. Lechner, and A. Jiang

             Previous Authors, Complete List of Code Contributors,
                       and Citations for Specific Modules
    https://github.com/psi4/psi4/blob/master/codemeta.json
    https://github.com/psi4/psi4/graphs/contributors
    http://psicode.org/psi4manual/master/introduction.html#citing-psifour

    -----------------------------------------------------------------------


    Psi4 started on: Tuesday, 27 September 2022 06:25PM

    Process ID: 10544
    Host:       Lenovo-Y540-Zoha
    PSIDATADIR: C:\Users\64292\Anaconda3\envs\qm-tools\lib\share\psi4
    Memory:     476.8 MiB
    Threads:    1
    
  ==> Input QCSchema <==

--------------------------------------------------------------------------
{'driver': 'energy',
 'extras': {'psiapi': True, 'wfn_qcvars_only': True},
 'id': None,
 'keywords': {'function_kwargs': {}},
 'model': {'basis': 'aug-cc-pvdz', 'method': 'scf'},
 'molecule': {'atom_labels': ['1', '2', '3', '5', '6', '7'],
              'atomic_numbers': [8, 1, 1, 8, 1, 1],
              'fix_com': True,
              'fix_orientation': True,
              'fragment_charges': [0.0, 0.0],
              'fragment_multiplicities': [1, 1],
              'fragments': [[0, 1, 2], [3, 4, 5]],
              'geometry': [3.6985726236876735e-17, -0.05118338925575477, -3.116050043131342, 3.6985726236876735e-17,
                           -0.05118338925575477, -1.2263239176735146, 3.6985726236876735e-17, 1.7781852282291912,
                           -3.5898382770492736, 3.6985726236876735e-17, -0.05118338925575477, 2.931073558333708,
                           -1.4172945940933717, -0.8694588046765649, 3.875936621062622, 1.4172945940933703,
                           0.7670920261650541, 3.875936621062623],
              'mass_numbers': [16, 1, 1, 16, 1, 1],
              'masses': [15.99491461957, 1.00782503223, 1.00782503223, 15.99491461957, 1.00782503223, 1.00782503223],
              'molecular_charge': 0.0,
              'molecular_multiplicity': 1,
              'name': 'H4O2',
              'provenance': {'creator': 'QCElemental',
                             'routine': 'qcelemental.molparse.from_string',
                             'version': 'v0.25.0'},
              'real': [True, True, True, False, False, False],
              'schema_name': 'qcschema_molecule',
              'schema_version': 2,
              'symbols': ['O', 'H', 'H', 'O', 'H', 'H'],
              'validated': True},
 'protocols': {'stdout': True},
 'provenance': {'creator': 'QCElemental', 'routine': 'qcelemental.models.results', 'version': 'v0.25.0'},
 'schema_name': 'qcschema_input',
 'schema_version': 1}
--------------------------------------------------------------------------

Scratch directory: C:\Users\64292\AppData\Local\Temp/

*** tstart() called on Lenovo-Y540-Zoha
*** at Tue Sep 27 18:45:26 2022

   => Loading Basis Set <=

    Name: AUG-CC-PVDZ
    Role: ORBITAL
    Keyword: BASIS
    atoms 1, 4     entry O          line   254 file C:\Users\64292\Anaconda3\envs\qm-tools\lib\share\psi4\basis\aug-cc-pvdz.gbs 
    atoms 2-3, 5-6 entry H          line    40 file C:\Users\64292\Anaconda3\envs\qm-tools\lib\share\psi4\basis\aug-cc-pvdz.gbs 


         ---------------------------------------------------------
                                   SCF
               by Justin Turney, Rob Parrish, Andy Simmonett
                          and Daniel G. A. Smith
                              RHF Reference
                        1 Threads,    476 MiB Core
         ---------------------------------------------------------

  ==> Geometry <==

    Molecular point group: c1
    Full point group: C1

    Geometry (in Bohr), charge = 0, multiplicity = 1:

       Center              X                  Y                   Z               Mass       
    ------------   -----------------  -----------------  -----------------  -----------------
         O            0.000000000000    -0.051183389256    -3.116050043131    15.994914619570
         H            0.000000000000    -0.051183389256    -1.226323917674     1.007825032230
         H            0.000000000000     1.778185228229    -3.589838277049     1.007825032230
      Gh(O)           0.000000000000    -0.051183389256     2.931073558334    15.994914619570
      Gh(H)          -1.417294594093    -0.869458804677     3.875936621063     1.007825032230
      Gh(H)           1.417294594093     0.767092026165     3.875936621063     1.007825032230

  Running in c1 symmetry.

  Rotational constants: A =      7.04471  B =      0.17729  C =      0.17487 [cm^-1]
  Rotational constants: A = 211195.08895  B =   5314.89401  C =   5242.39853 [MHz]
  Nuclear repulsion =    8.801420354575152

  Charge       = 0
  Multiplicity = 1
  Electrons    = 10
  Nalpha       = 5
  Nbeta        = 5

  ==> Algorithm <==

  SCF Algorithm Type is DF.
  DIIS enabled.
  MOM disabled.
  Fractional occupation disabled.
  Guess Type is SAD.
  Energy threshold   = 1.00e-06
  Density threshold  = 1.00e-06
  Integral threshold = 1.00e-12

  ==> Primary Basis <==

  Basis Set: AUG-CC-PVDZ
    Blend: AUG-CC-PVDZ
    Number of shells: 38
    Number of basis functions: 82
    Number of Cartesian functions: 86
    Spherical Harmonics?: true
    Max angular momentum: 2

   => Loading Basis Set <=

    Name: (AUG-CC-PVDZ AUX)
    Role: JKFIT
    Keyword: DF_BASIS_SCF
    atoms 1, 4     entry O          line   270 file C:\Users\64292\Anaconda3\envs\qm-tools\lib\share\psi4\basis\aug-cc-pvdz-jkfit.gbs 
    atoms 2-3, 5-6 entry H          line    70 file C:\Users\64292\Anaconda3\envs\qm-tools\lib\share\psi4\basis\aug-cc-pvdz-jkfit.gbs 

  ==> Integral Setup <==

  DFHelper Memory: AOs need 0.017 GiB; user supplied 0.349 GiB. Using in-core AOs.

  ==> MemDFJK: Density-Fitted J/K Matrices <==

    J tasked:                   Yes
    K tasked:                   Yes
    wK tasked:                   No
    OpenMP threads:               1
    Memory [MiB]:               357
    Algorithm:                 Core
    Schwarz Cutoff:           1E-12
    Mask sparsity (%):       0.0000
    Fitting Condition:        1E-10

   => Auxiliary Basis Set <=

  Basis Set: (AUG-CC-PVDZ AUX)
    Blend: AUG-CC-PVDZ-JKFIT
    Number of shells: 104
    Number of basis functions: 300
    Number of Cartesian functions: 342
    Spherical Harmonics?: true
    Max angular momentum: 3

  Minimum eigenvalue in the overlap matrix is 2.1545205948E-03.
  Reciprocal condition number of the overlap matrix is 3.0453842699E-04.
    Using symmetric orthogonalization.

  ==> Pre-Iterations <==

  SCF Guess: Superposition of Atomic Densities via on-the-fly atomic UHF (no occupation information).

   -------------------------
    Irrep   Nso     Nmo    
   -------------------------
     A         82      82 
   -------------------------
    Total      82      82
   -------------------------

  ==> Iterations <==

                           Total Energy        Delta E     RMS |[F,P]|

   @DF-RHF iter SAD:   -75.41487092186424   -7.54149e+01   0.00000e+00 
   @DF-RHF iter   1:   -75.94941351383196   -5.34543e-01   5.50546e-03 DIIS/ADIIS
   @DF-RHF iter   2:   -76.00129207083364   -5.18786e-02   3.77496e-03 DIIS/ADIIS
   @DF-RHF iter   3:   -76.03524614383942   -3.39541e-02   2.81148e-04 DIIS/ADIIS
   @DF-RHF iter   4:   -76.03569965611243   -4.53512e-04   6.60345e-05 DIIS
   @DF-RHF iter   5:   -76.03572981406676   -3.01580e-05   1.56313e-05 DIIS
   @DF-RHF iter   6:   -76.03573238582347   -2.57176e-06   3.09270e-06 DIIS
   @DF-RHF iter   7:   -76.03573248924734   -1.03424e-07   5.04893e-07 DIIS
  Energy and wave function converged.


  ==> Post-Iterations <==

    Orbital Energies [Eh]
    ---------------------

    Doubly Occupied:                                                      

       1A    -20.584248     2A     -1.335639     3A     -0.696498  
       4A     -0.577372     5A     -0.506075  

    Virtual:                                                              

       6A      0.024674     7A      0.049639     8A      0.058156  
       9A      0.078883    10A      0.134304    11A      0.149039  
      12A      0.181668    13A      0.190579    14A      0.218934  
      15A      0.224530    16A      0.228208    17A      0.266815  
      18A      0.324051    19A      0.361310    20A      0.362978  
      21A      0.388232    22A      0.403557    23A      0.417860  
      24A      0.420768    25A      0.465271    26A      0.486869  
      27A      0.497842    28A      0.511705    29A      0.537968  
      30A      0.571570    31A      0.610227    32A      0.647652  
      33A      0.739973    34A      0.828148    35A      0.905687  
      36A      0.955927    37A      1.039055    38A      1.106309  
      39A      1.144654    40A      1.167705    41A      1.193954  
      42A      1.202247    43A      1.275589    44A      1.298006  
      45A      1.306756    46A      1.333721    47A      1.348191  
      48A      1.421551    49A      1.492742    50A      1.553287  
      51A      1.705343    52A      1.987056    53A      1.992609  
      54A      2.060896    55A      2.083185    56A      2.333850  
      57A      2.364100    58A      2.381017    59A      2.391471  
      60A      2.419461    61A      2.435098    62A      2.583986  
      63A      2.720597    64A      2.874715    65A      2.984759  
      66A      3.391895    67A      3.675121    68A      3.702608  
      69A      3.724599    70A      3.919314    71A      3.947808  
      72A      4.038664    73A      4.262193    74A      4.890037  
      75A      4.940632    76A      5.035792    77A      5.324674  
      78A      5.327086    79A      5.583088    80A      6.309797  
      81A      6.810905    82A     33.527404  

    Final Occupation by Irrep:
              A 
    DOCC [     5 ]

  @DF-RHF Final Energy:   -76.03573248924734

   => Energetics <=

    Nuclear Repulsion Energy =              8.8014203545751517
    One-Electron Energy =                -122.2746215257818676
    Two-Electron Energy =                  37.4374686819593734
    Total Energy =                        -76.0357324892473372

Computation Completed


Properties will be evaluated at   0.000000,   0.000000,   0.000000 [a0]

Properties computed using the SCF density matrix


 Multipole Moments:

 ------------------------------------------------------------------------------------
     Multipole            Electronic (a.u.)      Nuclear  (a.u.)        Total (a.u.)
 ------------------------------------------------------------------------------------

 L = 1.  Multiply by 2.5417464519 to convert [e a0] to [Debye]
 Dipole X            :          0.0000751            0.0000000            0.0000751
 Dipole Y            :         -0.6853975            1.3175347            0.6321373
 Dipole Z            :         30.2336999          -29.7445625            0.4891374
 Magnitude           :                                                    0.7992827

 ------------------------------------------------------------------------------------

*** tstop() called on Lenovo-Y540-Zoha at Tue Sep 27 18:45:27 2022
Module time:
	user time   =        nan seconds =        nan minutes
	system time =        nan seconds =        nan minutes
	total time  =          1 seconds =       0.02 minutes
Total time:
	user time   =        nan seconds =        nan minutes
	system time =        nan seconds =        nan minutes
	total time  =       1146 seconds =      19.10 minutes

    Psi4 stopped on: Tuesday, 27 September 2022 06:45PM
    Psi4 wall time for execution: 0:00:01.05


    -----------------------------------------------------------------------
          Psi4: An Open-Source Ab Initio Electronic Structure Package
                               Psi4 1.6.1 release

                         Git: Rev {HEAD} 5b9f6e3 


    D. G. A. Smith, L. A. Burns, A. C. Simmonett, R. M. Parrish,
    M. C. Schieber, R. Galvelis, P. Kraus, H. Kruse, R. Di Remigio,
    A. Alenaizan, A. M. James, S. Lehtola, J. P. Misiewicz, M. Scheurer,
    R. A. Shaw, J. B. Schriber, Y. Xie, Z. L. Glick, D. A. Sirianni,
    J. S. O'Brien, J. M. Waldrop, A. Kumar, E. G. Hohenstein,
    B. P. Pritchard, B. R. Brooks, H. F. Schaefer III, A. Yu. Sokolov,
    K. Patkowski, A. E. DePrince III, U. Bozkaya, R. A. King,
    F. A. Evangelista, J. M. Turney, T. D. Crawford, C. D. Sherrill,
    J. Chem. Phys. 152(18) 184108 (2020). https://doi.org/10.1063/5.0006002

                            Additional Code Authors
    E. T. Seidl, C. L. Janssen, E. F. Valeev, M. L. Leininger,
    J. F. Gonthier, R. M. Richard, H. R. McAlexander, M. Saitow, X. Wang,
    P. Verma, M. H. Lechner, and A. Jiang

             Previous Authors, Complete List of Code Contributors,
                       and Citations for Specific Modules
    https://github.com/psi4/psi4/blob/master/codemeta.json
    https://github.com/psi4/psi4/graphs/contributors
    http://psicode.org/psi4manual/master/introduction.html#citing-psifour

    -----------------------------------------------------------------------


    Psi4 started on: Tuesday, 27 September 2022 06:25PM

    Process ID: 10544
    Host:       Lenovo-Y540-Zoha
    PSIDATADIR: C:\Users\64292\Anaconda3\envs\qm-tools\lib\share\psi4
    Memory:     476.8 MiB
    Threads:    1
    
  ==> Input QCSchema <==

--------------------------------------------------------------------------
{'driver': 'energy',
 'extras': {'psiapi': True, 'wfn_qcvars_only': True},
 'id': None,
 'keywords': {'function_kwargs': {}},
 'model': {'basis': 'aug-cc-pvdz', 'method': 'scf'},
 'molecule': {'atom_labels': ['1', '2', '3', '5', '6', '7'],
              'atomic_numbers': [8, 1, 1, 8, 1, 1],
              'fix_com': True,
              'fix_orientation': True,
              'fragment_charges': [0.0, 0.0],
              'fragment_multiplicities': [1, 1],
              'fragments': [[0, 1, 2], [3, 4, 5]],
              'geometry': [3.6985726236876735e-17, -0.05118338925575477, -3.116050043131342, 3.6985726236876735e-17,
                           -0.05118338925575477, -1.2263239176735146, 3.6985726236876735e-17, 1.7781852282291912,
                           -3.5898382770492736, 3.6985726236876735e-17, -0.05118338925575477, 2.931073558333708,
                           -1.4172945940933717, -0.8694588046765649, 3.875936621062622, 1.4172945940933703,
                           0.7670920261650541, 3.875936621062623],
              'mass_numbers': [16, 1, 1, 16, 1, 1],
              'masses': [15.99491461957, 1.00782503223, 1.00782503223, 15.99491461957, 1.00782503223, 1.00782503223],
              'molecular_charge': 0.0,
              'molecular_multiplicity': 1,
              'name': 'H4O2',
              'provenance': {'creator': 'QCElemental',
                             'routine': 'qcelemental.molparse.from_string',
                             'version': 'v0.25.0'},
              'real': [True, True, True, True, True, True],
              'schema_name': 'qcschema_molecule',
              'schema_version': 2,
              'symbols': ['O', 'H', 'H', 'O', 'H', 'H'],
              'validated': True},
 'protocols': {'stdout': True},
 'provenance': {'creator': 'QCElemental', 'routine': 'qcelemental.models.results', 'version': 'v0.25.0'},
 'schema_name': 'qcschema_input',
 'schema_version': 1}
--------------------------------------------------------------------------

Scratch directory: C:\Users\64292\AppData\Local\Temp/

*** tstart() called on Lenovo-Y540-Zoha
*** at Tue Sep 27 18:45:27 2022

   => Loading Basis Set <=

    Name: AUG-CC-PVDZ
    Role: ORBITAL
    Keyword: BASIS
    atoms 1, 4     entry O          line   254 file C:\Users\64292\Anaconda3\envs\qm-tools\lib\share\psi4\basis\aug-cc-pvdz.gbs 
    atoms 2-3, 5-6 entry H          line    40 file C:\Users\64292\Anaconda3\envs\qm-tools\lib\share\psi4\basis\aug-cc-pvdz.gbs 


         ---------------------------------------------------------
                                   SCF
               by Justin Turney, Rob Parrish, Andy Simmonett
                          and Daniel G. A. Smith
                              RHF Reference
                        1 Threads,    476 MiB Core
         ---------------------------------------------------------

  ==> Geometry <==

    Molecular point group: c1
    Full point group: C1

    Geometry (in Bohr), charge = 0, multiplicity = 1:

       Center              X                  Y                   Z               Mass       
    ------------   -----------------  -----------------  -----------------  -----------------
         O            0.000000000000    -0.051183389256    -3.116050043131    15.994914619570
         H            0.000000000000    -0.051183389256    -1.226323917674     1.007825032230
         H            0.000000000000     1.778185228229    -3.589838277049     1.007825032230
         O            0.000000000000    -0.051183389256     2.931073558334    15.994914619570
         H           -1.417294594093    -0.869458804677     3.875936621063     1.007825032230
         H            1.417294594093     0.767092026165     3.875936621063     1.007825032230

  Running in c1 symmetry.

  Rotational constants: A =      7.04471  B =      0.17729  C =      0.17487 [cm^-1]
  Rotational constants: A = 211195.08895  B =   5314.89401  C =   5242.39853 [MHz]
  Nuclear repulsion =   34.118901437492887

  Charge       = 0
  Multiplicity = 1
  Electrons    = 20
  Nalpha       = 10
  Nbeta        = 10

  ==> Algorithm <==

  SCF Algorithm Type is DF.
  DIIS enabled.
  MOM disabled.
  Fractional occupation disabled.
  Guess Type is SAD.
  Energy threshold   = 1.00e-06
  Density threshold  = 1.00e-06
  Integral threshold = 1.00e-12

  ==> Primary Basis <==

  Basis Set: AUG-CC-PVDZ
    Blend: AUG-CC-PVDZ
    Number of shells: 38
    Number of basis functions: 82
    Number of Cartesian functions: 86
    Spherical Harmonics?: true
    Max angular momentum: 2

   => Loading Basis Set <=

    Name: (AUG-CC-PVDZ AUX)
    Role: JKFIT
    Keyword: DF_BASIS_SCF
    atoms 1, 4     entry O          line   270 file C:\Users\64292\Anaconda3\envs\qm-tools\lib\share\psi4\basis\aug-cc-pvdz-jkfit.gbs 
    atoms 2-3, 5-6 entry H          line    70 file C:\Users\64292\Anaconda3\envs\qm-tools\lib\share\psi4\basis\aug-cc-pvdz-jkfit.gbs 

  ==> Integral Setup <==

  DFHelper Memory: AOs need 0.017 GiB; user supplied 0.349 GiB. Using in-core AOs.

  ==> MemDFJK: Density-Fitted J/K Matrices <==

    J tasked:                   Yes
    K tasked:                   Yes
    wK tasked:                   No
    OpenMP threads:               1
    Memory [MiB]:               357
    Algorithm:                 Core
    Schwarz Cutoff:           1E-12
    Mask sparsity (%):       0.0000
    Fitting Condition:        1E-10

   => Auxiliary Basis Set <=

  Basis Set: (AUG-CC-PVDZ AUX)
    Blend: AUG-CC-PVDZ-JKFIT
    Number of shells: 104
    Number of basis functions: 300
    Number of Cartesian functions: 342
    Spherical Harmonics?: true
    Max angular momentum: 3

  Minimum eigenvalue in the overlap matrix is 2.1545205948E-03.
  Reciprocal condition number of the overlap matrix is 3.0453842699E-04.
    Using symmetric orthogonalization.

  ==> Pre-Iterations <==

  SCF Guess: Superposition of Atomic Densities via on-the-fly atomic UHF (no occupation information).

   -------------------------
    Irrep   Nso     Nmo    
   -------------------------
     A         82      82 
   -------------------------
    Total      82      82
   -------------------------

  ==> Iterations <==

                           Total Energy        Delta E     RMS |[F,P]|

   @DF-RHF iter SAD:  -150.86136534279981   -1.50861e+02   0.00000e+00 
   @DF-RHF iter   1:  -151.91098346113736   -1.04962e+00   7.57113e-03 DIIS/ADIIS
   @DF-RHF iter   2:  -152.01104725422815   -1.00064e-01   5.01824e-03 DIIS/ADIIS
   @DF-RHF iter   3:  -152.07071120697120   -5.96640e-02   4.08642e-04 DIIS/ADIIS
   @DF-RHF iter   4:  -152.07166083214170   -9.49625e-04   8.98643e-05 DIIS
   @DF-RHF iter   5:  -152.07171734316560   -5.65110e-05   2.62259e-05 DIIS
   @DF-RHF iter   6:  -152.07172265335433   -5.31019e-06   1.19916e-05 DIIS
   @DF-RHF iter   7:  -152.07172334550853   -6.92154e-07   2.61747e-06 DIIS
   @DF-RHF iter   8:  -152.07172341413460   -6.86261e-08   4.50855e-07 DIIS
  Energy and wave function converged.


  ==> Post-Iterations <==

    Orbital Energies [Eh]
    ---------------------

    Doubly Occupied:                                                      

       1A    -20.597216     2A    -20.556102     3A     -1.348607  
       4A     -1.309156     5A     -0.742761     6A     -0.672985  
       7A     -0.578848     8A     -0.546341     9A     -0.523260  
      10A     -0.479927  

    Virtual:                                                              

      11A      0.026293    12A      0.050653    13A      0.056469  
      14A      0.088514    15A      0.175002    16A      0.183253  
      17A      0.199438    18A      0.212256    19A      0.226168  
      20A      0.235781    21A      0.246416    22A      0.277371  
      23A      0.299086    24A      0.310334    25A      0.343824  
      26A      0.361621    27A      0.399001    28A      0.422631  
      29A      0.437032    30A      0.481940    31A      0.512384  
      32A      0.530819    33A      0.539329    34A      0.585853  
      35A      0.629007    36A      0.645791    37A      0.665336  
      38A      0.775138    39A      0.836343    40A      0.859521  
      41A      0.914435    42A      0.986174    43A      1.091898  
      44A      1.126323    45A      1.135111    46A      1.182707  
      47A      1.196197    48A      1.215004    49A      1.344106  
      50A      1.423427    51A      1.458662    52A      1.494043  
      53A      1.517490    54A      1.594392    55A      1.617387  
      56A      1.935307    57A      1.954346    58A      2.015134  
      59A      2.026442    60A      2.030718    61A      2.040836  
      62A      2.118222    63A      2.345403    64A      2.392160  
      65A      2.426754    66A      2.473943    67A      2.510415  
      68A      2.689323    69A      2.753505    70A      2.769155  
      71A      2.945142    72A      3.013528    73A      3.661351  
      74A      3.678945    75A      3.701824    76A      3.736072  
      77A      3.756927    78A      3.760022    79A      4.065904  
      80A      4.122732    81A      4.166138    82A      4.314027  

    Final Occupation by Irrep:
              A 
    DOCC [    10 ]

  @DF-RHF Final Energy:  -152.07172341413460

   => Energetics <=

    Nuclear Repulsion Energy =             34.1189014374928874
    One-Electron Energy =                -277.6708238851601322
    Two-Electron Energy =                  91.4801990335326423
    Total Energy =                       -152.0717234141345955

Computation Completed


Properties will be evaluated at   0.000000,   0.000000,   0.000000 [a0]

Properties computed using the SCF density matrix


 Multipole Moments:

 ------------------------------------------------------------------------------------
     Multipole            Electronic (a.u.)      Nuclear  (a.u.)        Total (a.u.)
 ------------------------------------------------------------------------------------

 L = 1.  Multiply by 2.5417464519 to convert [e a0] to [Debye]
 Dipole X            :         -0.0010757           -0.0000000           -0.0010757
 Dipole Y            :         -0.1943778            0.8057008            0.6113230
 Dipole Z            :         -0.0942467            1.4558992            1.3616525
 Magnitude           :                                                    1.4925865

 ------------------------------------------------------------------------------------

*** tstop() called on Lenovo-Y540-Zoha at Tue Sep 27 18:45:28 2022
Module time:
	user time   =        nan seconds =        nan minutes
	system time =        nan seconds =        nan minutes
	total time  =          1 seconds =       0.02 minutes
Total time:
	user time   =        nan seconds =        nan minutes
	system time =        nan seconds =        nan minutes
	total time  =       1147 seconds =      19.12 minutes

    Psi4 stopped on: Tuesday, 27 September 2022 06:45PM
    Psi4 wall time for execution: 0:00:01.07


  //>>>>>>>>>>>>>>>>>>>>>>>>>>>>>>>>>>>//
  //          ManyBody Results         //
  //<<<<<<<<<<<<<<<<<<<<<<<<<<<<<<<<<<<//


   ==> N-Body: Counterpoise Corrected (CP) energies <==

        n-Body     Total Energy            Interaction Energy                          N-body Contribution to Interaction Energy
                   [Eh]                    [Eh]                  [kcal/mol]            [Eh]                  [kcal/mol]
             1  N/A                         0.000000000000        0.000000000000        0.000000000000        0.000000000000
  FULL/RTN   2  N/A                        -0.006114317668       -3.836792262333       -0.006114317668       -3.836792262333

