
Scratch directory: C:\Users\64292\AppData\Local\Temp/

  //>>>>>>>>>>>>>>>>>>>>>>>>>>>>>>>>>>>>>//
  // ManyBody Setup: N-Body Levels [1, 2]//
  //<<<<<<<<<<<<<<<<<<<<<<<<<<<<<<<<<<<<<//

        Number of 1-body computations:     2
        Number of 2-body computations:     1

    -----------------------------------------------------------------------
          Psi4: An Open-Source Ab Initio Electronic Structure Package
                               Psi4 1.6.1 release

                         Git: Rev {HEAD} 5b9f6e3 


    D. G. A. Smith, L. A. Burns, A. C. Simmonett, R. M. Parrish,
    M. C. Schieber, R. Galvelis, P. Kraus, H. Kruse, R. Di Remigio,
    A. Alenaizan, A. M. James, S. Lehtola, J. P. Misiewicz, M. Scheurer,
    R. A. Shaw, J. B. Schriber, Y. Xie, Z. L. Glick, D. A. Sirianni,
    J. S. O'Brien, J. M. Waldrop, A. Kumar, E. G. Hohenstein,
    B. P. Pritchard, B. R. Brooks, H. F. Schaefer III, A. Yu. Sokolov,
    K. Patkowski, A. E. DePrince III, U. Bozkaya, R. A. King,
    F. A. Evangelista, J. M. Turney, T. D. Crawford, C. D. Sherrill,
    J. Chem. Phys. 152(18) 184108 (2020). https://doi.org/10.1063/5.0006002

                            Additional Code Authors
    E. T. Seidl, C. L. Janssen, E. F. Valeev, M. L. Leininger,
    J. F. Gonthier, R. M. Richard, H. R. McAlexander, M. Saitow, X. Wang,
    P. Verma, M. H. Lechner, and A. Jiang

             Previous Authors, Complete List of Code Contributors,
                       and Citations for Specific Modules
    https://github.com/psi4/psi4/blob/master/codemeta.json
    https://github.com/psi4/psi4/graphs/contributors
    http://psicode.org/psi4manual/master/introduction.html#citing-psifour

    -----------------------------------------------------------------------


    Psi4 started on: Tuesday, 27 September 2022 06:25PM

    Process ID: 10544
    Host:       Lenovo-Y540-Zoha
    PSIDATADIR: C:\Users\64292\Anaconda3\envs\qm-tools\lib\share\psi4
    Memory:     476.8 MiB
    Threads:    1
    
  ==> Input QCSchema <==

--------------------------------------------------------------------------
{'driver': 'energy',
 'extras': {'psiapi': True, 'wfn_qcvars_only': True},
 'id': None,
 'keywords': {'function_kwargs': {}},
 'model': {'basis': 'aug-cc-pvdz', 'method': 'scf'},
 'molecule': {'atom_labels': ['1', '2', '3', '5', '6', '7'],
              'atomic_numbers': [8, 1, 1, 8, 1, 1],
              'fix_com': True,
              'fix_orientation': True,
              'fragment_charges': [0.0, 0.0],
              'fragment_multiplicities': [1, 1],
              'fragments': [[0, 1, 2], [3, 4, 5]],
              'geometry': [3.6985726236876735e-17, -0.05118338925575475, -2.8325911243126685, 3.6985726236876735e-17,
                           -0.05118338925575475, -0.9428649988548403, 3.6985726236876735e-17, 1.7781852282291912,
                           -3.3063793582306, 3.6985726236876735e-17, -0.05118338925575475, 2.6476146395150337,
                           -1.5807867135447522, -0.47475391255592003, 3.592477702243947, 1.5807867135447509,
                           0.3723871340444087, 3.592477702243948],
              'mass_numbers': [16, 1, 1, 16, 1, 1],
              'masses': [15.99491461957, 1.00782503223, 1.00782503223, 15.99491461957, 1.00782503223, 1.00782503223],
              'molecular_charge': 0.0,
              'molecular_multiplicity': 1,
              'name': 'H4O2',
              'provenance': {'creator': 'QCElemental',
                             'routine': 'qcelemental.molparse.from_string',
                             'version': 'v0.25.0'},
              'real': [False, False, False, True, True, True],
              'schema_name': 'qcschema_molecule',
              'schema_version': 2,
              'symbols': ['O', 'H', 'H', 'O', 'H', 'H'],
              'validated': True},
 'protocols': {'stdout': True},
 'provenance': {'creator': 'QCElemental', 'routine': 'qcelemental.models.results', 'version': 'v0.25.0'},
 'schema_name': 'qcschema_input',
 'schema_version': 1}
--------------------------------------------------------------------------

Scratch directory: C:\Users\64292\AppData\Local\Temp/

*** tstart() called on Lenovo-Y540-Zoha
*** at Tue Sep 27 18:40:58 2022

   => Loading Basis Set <=

    Name: AUG-CC-PVDZ
    Role: ORBITAL
    Keyword: BASIS
    atoms 1, 4     entry O          line   254 file C:\Users\64292\Anaconda3\envs\qm-tools\lib\share\psi4\basis\aug-cc-pvdz.gbs 
    atoms 2-3, 5-6 entry H          line    40 file C:\Users\64292\Anaconda3\envs\qm-tools\lib\share\psi4\basis\aug-cc-pvdz.gbs 


         ---------------------------------------------------------
                                   SCF
               by Justin Turney, Rob Parrish, Andy Simmonett
                          and Daniel G. A. Smith
                              RHF Reference
                        1 Threads,    476 MiB Core
         ---------------------------------------------------------

  ==> Geometry <==

    Molecular point group: c1
    Full point group: C1

    Geometry (in Bohr), charge = 0, multiplicity = 1:

       Center              X                  Y                   Z               Mass       
    ------------   -----------------  -----------------  -----------------  -----------------
      Gh(O)           0.000000000000    -0.051183389256    -2.832591124313    15.994914619570
      Gh(H)           0.000000000000    -0.051183389256    -0.942864998855     1.007825032230
      Gh(H)           0.000000000000     1.778185228229    -3.306379358231     1.007825032230
         O            0.000000000000    -0.051183389256     2.647614639515    15.994914619570
         H           -1.580786713545    -0.474753912556     3.592477702244     1.007825032230
         H            1.580786713545     0.372387134044     3.592477702244     1.007825032230

  Running in c1 symmetry.

  Rotational constants: A =      7.04771  B =      0.21405  C =      0.21171 [cm^-1]
  Rotational constants: A = 211285.11503  B =   6417.07627  C =   6347.04443 [MHz]
  Nuclear repulsion =    8.772355975749342

  Charge       = 0
  Multiplicity = 1
  Electrons    = 10
  Nalpha       = 5
  Nbeta        = 5

  ==> Algorithm <==

  SCF Algorithm Type is DF.
  DIIS enabled.
  MOM disabled.
  Fractional occupation disabled.
  Guess Type is SAD.
  Energy threshold   = 1.00e-06
  Density threshold  = 1.00e-06
  Integral threshold = 1.00e-12

  ==> Primary Basis <==

  Basis Set: AUG-CC-PVDZ
    Blend: AUG-CC-PVDZ
    Number of shells: 38
    Number of basis functions: 82
    Number of Cartesian functions: 86
    Spherical Harmonics?: true
    Max angular momentum: 2

   => Loading Basis Set <=

    Name: (AUG-CC-PVDZ AUX)
    Role: JKFIT
    Keyword: DF_BASIS_SCF
    atoms 1, 4     entry O          line   270 file C:\Users\64292\Anaconda3\envs\qm-tools\lib\share\psi4\basis\aug-cc-pvdz-jkfit.gbs 
    atoms 2-3, 5-6 entry H          line    70 file C:\Users\64292\Anaconda3\envs\qm-tools\lib\share\psi4\basis\aug-cc-pvdz-jkfit.gbs 

  ==> Integral Setup <==

  DFHelper Memory: AOs need 0.017 GiB; user supplied 0.349 GiB. Using in-core AOs.

  ==> MemDFJK: Density-Fitted J/K Matrices <==

    J tasked:                   Yes
    K tasked:                   Yes
    wK tasked:                   No
    OpenMP threads:               1
    Memory [MiB]:               357
    Algorithm:                 Core
    Schwarz Cutoff:           1E-12
    Mask sparsity (%):       0.0000
    Fitting Condition:        1E-10

   => Auxiliary Basis Set <=

  Basis Set: (AUG-CC-PVDZ AUX)
    Blend: AUG-CC-PVDZ-JKFIT
    Number of shells: 104
    Number of basis functions: 300
    Number of Cartesian functions: 342
    Spherical Harmonics?: true
    Max angular momentum: 3

  Minimum eigenvalue in the overlap matrix is 2.0263133440E-03.
  Reciprocal condition number of the overlap matrix is 2.7135490675E-04.
    Using symmetric orthogonalization.

  ==> Pre-Iterations <==

  SCF Guess: Superposition of Atomic Densities via on-the-fly atomic UHF (no occupation information).

   -------------------------
    Irrep   Nso     Nmo    
   -------------------------
     A         82      82 
   -------------------------
    Total      82      82
   -------------------------

  ==> Iterations <==

                           Total Energy        Delta E     RMS |[F,P]|

   @DF-RHF iter SAD:   -75.40236273608970   -7.54024e+01   0.00000e+00 
   @DF-RHF iter   1:   -75.94519885261771   -5.42836e-01   5.51042e-03 DIIS/ADIIS
   @DF-RHF iter   2:   -75.99640036356176   -5.12015e-02   3.73302e-03 DIIS/ADIIS
   @DF-RHF iter   3:   -76.02949222863263   -3.30919e-02   2.79052e-04 DIIS/ADIIS
   @DF-RHF iter   4:   -76.02996313896938   -4.70910e-04   6.67906e-05 DIIS
   @DF-RHF iter   5:   -76.02999577937319   -3.26404e-05   1.63015e-05 DIIS
   @DF-RHF iter   6:   -76.02999885798650   -3.07861e-06   3.50299e-06 DIIS
   @DF-RHF iter   7:   -76.02999901358193   -1.55595e-07   6.44630e-07 DIIS
  Energy and wave function converged.


  ==> Post-Iterations <==

    Orbital Energies [Eh]
    ---------------------

    Doubly Occupied:                                                      

       1A    -20.575844     2A     -1.325803     3A     -0.721131  
       4A     -0.548200     5A     -0.500604  

    Virtual:                                                              

       6A      0.032475     7A      0.054940     8A      0.055903  
       9A      0.080176    10A      0.168880    11A      0.172515  
      12A      0.181791    13A      0.198141    14A      0.211788  
      15A      0.224583    16A      0.241110    17A      0.254282  
      18A      0.320447    19A      0.323654    20A      0.371277  
      21A      0.400958    22A      0.437030    23A      0.454871  
      24A      0.469375    25A      0.511382    26A      0.528983  
      27A      0.537275    28A      0.552234    29A      0.569759  
      30A      0.622523    31A      0.655215    32A      0.664112  
      33A      0.715274    34A      0.860771    35A      0.883931  
      36A      0.953972    37A      0.963162    38A      1.138222  
      39A      1.147193    40A      1.190767    41A      1.215258  
      42A      1.218633    43A      1.287650    44A      1.338597  
      45A      1.408573    46A      1.418224    47A      1.435344  
      48A      1.505417    49A      1.576923    50A      1.587782  
      51A      1.781253    52A      1.993555    53A      2.051596  
      54A      2.055943    55A      2.167381    56A      2.357603  
      57A      2.367768    58A      2.410073    59A      2.475773  
      60A      2.500753    61A      2.547925    62A      2.668185  
      63A      2.794484    64A      2.865240    65A      2.943911  
      66A      3.439303    67A      3.701020    68A      3.736651  
      69A      3.860643    70A      3.911450    71A      4.095014  
      72A      4.148299    73A      4.196370    74A      4.915476  
      75A      4.962223    76A      5.006288    77A      5.184427  
      78A      5.492481    79A      5.705897    80A      6.484259  
      81A      6.926690    82A     33.575191  

    Final Occupation by Irrep:
              A 
    DOCC [     5 ]

  @DF-RHF Final Energy:   -76.02999901358193

   => Energetics <=

    Nuclear Repulsion Energy =              8.7723559757493419
    One-Electron Energy =                -122.2615091474683027
    Two-Electron Energy =                  37.4591541581370251
    Total Energy =                        -76.0299990135819286

Computation Completed


Properties will be evaluated at   0.000000,   0.000000,   0.000000 [a0]

Properties computed using the SCF density matrix


 Multipole Moments:

 ------------------------------------------------------------------------------------
     Multipole            Electronic (a.u.)      Nuclear  (a.u.)        Total (a.u.)
 ------------------------------------------------------------------------------------

 L = 1.  Multiply by 2.5417464519 to convert [e a0] to [Debye]
 Dipole X            :          0.0000543           -0.0000000            0.0000543
 Dipole Y            :          0.5115237           -0.5118339           -0.0003101
 Dipole Z            :        -27.6814427           28.3658725            0.6844298
 Magnitude           :                                                    0.6844299

 ------------------------------------------------------------------------------------

*** tstop() called on Lenovo-Y540-Zoha at Tue Sep 27 18:40:59 2022
Module time:
	user time   =        nan seconds =        nan minutes
	system time =        nan seconds =        nan minutes
	total time  =          1 seconds =       0.02 minutes
Total time:
	user time   =        nan seconds =        nan minutes
	system time =        nan seconds =        nan minutes
	total time  =        878 seconds =      14.63 minutes

    Psi4 stopped on: Tuesday, 27 September 2022 06:40PM
    Psi4 wall time for execution: 0:00:01.02


    -----------------------------------------------------------------------
          Psi4: An Open-Source Ab Initio Electronic Structure Package
                               Psi4 1.6.1 release

                         Git: Rev {HEAD} 5b9f6e3 


    D. G. A. Smith, L. A. Burns, A. C. Simmonett, R. M. Parrish,
    M. C. Schieber, R. Galvelis, P. Kraus, H. Kruse, R. Di Remigio,
    A. Alenaizan, A. M. James, S. Lehtola, J. P. Misiewicz, M. Scheurer,
    R. A. Shaw, J. B. Schriber, Y. Xie, Z. L. Glick, D. A. Sirianni,
    J. S. O'Brien, J. M. Waldrop, A. Kumar, E. G. Hohenstein,
    B. P. Pritchard, B. R. Brooks, H. F. Schaefer III, A. Yu. Sokolov,
    K. Patkowski, A. E. DePrince III, U. Bozkaya, R. A. King,
    F. A. Evangelista, J. M. Turney, T. D. Crawford, C. D. Sherrill,
    J. Chem. Phys. 152(18) 184108 (2020). https://doi.org/10.1063/5.0006002

                            Additional Code Authors
    E. T. Seidl, C. L. Janssen, E. F. Valeev, M. L. Leininger,
    J. F. Gonthier, R. M. Richard, H. R. McAlexander, M. Saitow, X. Wang,
    P. Verma, M. H. Lechner, and A. Jiang

             Previous Authors, Complete List of Code Contributors,
                       and Citations for Specific Modules
    https://github.com/psi4/psi4/blob/master/codemeta.json
    https://github.com/psi4/psi4/graphs/contributors
    http://psicode.org/psi4manual/master/introduction.html#citing-psifour

    -----------------------------------------------------------------------


    Psi4 started on: Tuesday, 27 September 2022 06:25PM

    Process ID: 10544
    Host:       Lenovo-Y540-Zoha
    PSIDATADIR: C:\Users\64292\Anaconda3\envs\qm-tools\lib\share\psi4
    Memory:     476.8 MiB
    Threads:    1
    
  ==> Input QCSchema <==

--------------------------------------------------------------------------
{'driver': 'energy',
 'extras': {'psiapi': True, 'wfn_qcvars_only': True},
 'id': None,
 'keywords': {'function_kwargs': {}},
 'model': {'basis': 'aug-cc-pvdz', 'method': 'scf'},
 'molecule': {'atom_labels': ['1', '2', '3', '5', '6', '7'],
              'atomic_numbers': [8, 1, 1, 8, 1, 1],
              'fix_com': True,
              'fix_orientation': True,
              'fragment_charges': [0.0, 0.0],
              'fragment_multiplicities': [1, 1],
              'fragments': [[0, 1, 2], [3, 4, 5]],
              'geometry': [3.6985726236876735e-17, -0.05118338925575475, -2.8325911243126685, 3.6985726236876735e-17,
                           -0.05118338925575475, -0.9428649988548403, 3.6985726236876735e-17, 1.7781852282291912,
                           -3.3063793582306, 3.6985726236876735e-17, -0.05118338925575475, 2.6476146395150337,
                           -1.5807867135447522, -0.47475391255592003, 3.592477702243947, 1.5807867135447509,
                           0.3723871340444087, 3.592477702243948],
              'mass_numbers': [16, 1, 1, 16, 1, 1],
              'masses': [15.99491461957, 1.00782503223, 1.00782503223, 15.99491461957, 1.00782503223, 1.00782503223],
              'molecular_charge': 0.0,
              'molecular_multiplicity': 1,
              'name': 'H4O2',
              'provenance': {'creator': 'QCElemental',
                             'routine': 'qcelemental.molparse.from_string',
                             'version': 'v0.25.0'},
              'real': [True, True, True, False, False, False],
              'schema_name': 'qcschema_molecule',
              'schema_version': 2,
              'symbols': ['O', 'H', 'H', 'O', 'H', 'H'],
              'validated': True},
 'protocols': {'stdout': True},
 'provenance': {'creator': 'QCElemental', 'routine': 'qcelemental.models.results', 'version': 'v0.25.0'},
 'schema_name': 'qcschema_input',
 'schema_version': 1}
--------------------------------------------------------------------------

Scratch directory: C:\Users\64292\AppData\Local\Temp/

*** tstart() called on Lenovo-Y540-Zoha
*** at Tue Sep 27 18:40:59 2022

   => Loading Basis Set <=

    Name: AUG-CC-PVDZ
    Role: ORBITAL
    Keyword: BASIS
    atoms 1, 4     entry O          line   254 file C:\Users\64292\Anaconda3\envs\qm-tools\lib\share\psi4\basis\aug-cc-pvdz.gbs 
    atoms 2-3, 5-6 entry H          line    40 file C:\Users\64292\Anaconda3\envs\qm-tools\lib\share\psi4\basis\aug-cc-pvdz.gbs 


         ---------------------------------------------------------
                                   SCF
               by Justin Turney, Rob Parrish, Andy Simmonett
                          and Daniel G. A. Smith
                              RHF Reference
                        1 Threads,    476 MiB Core
         ---------------------------------------------------------

  ==> Geometry <==

    Molecular point group: c1
    Full point group: C1

    Geometry (in Bohr), charge = 0, multiplicity = 1:

       Center              X                  Y                   Z               Mass       
    ------------   -----------------  -----------------  -----------------  -----------------
         O            0.000000000000    -0.051183389256    -2.832591124313    15.994914619570
         H            0.000000000000    -0.051183389256    -0.942864998855     1.007825032230
         H            0.000000000000     1.778185228229    -3.306379358231     1.007825032230
      Gh(O)           0.000000000000    -0.051183389256     2.647614639515    15.994914619570
      Gh(H)          -1.580786713545    -0.474753912556     3.592477702244     1.007825032230
      Gh(H)           1.580786713545     0.372387134044     3.592477702244     1.007825032230

  Running in c1 symmetry.

  Rotational constants: A =      7.04771  B =      0.21405  C =      0.21171 [cm^-1]
  Rotational constants: A = 211285.11503  B =   6417.07627  C =   6347.04443 [MHz]
  Nuclear repulsion =    8.801420354575150

  Charge       = 0
  Multiplicity = 1
  Electrons    = 10
  Nalpha       = 5
  Nbeta        = 5

  ==> Algorithm <==

  SCF Algorithm Type is DF.
  DIIS enabled.
  MOM disabled.
  Fractional occupation disabled.
  Guess Type is SAD.
  Energy threshold   = 1.00e-06
  Density threshold  = 1.00e-06
  Integral threshold = 1.00e-12

  ==> Primary Basis <==

  Basis Set: AUG-CC-PVDZ
    Blend: AUG-CC-PVDZ
    Number of shells: 38
    Number of basis functions: 82
    Number of Cartesian functions: 86
    Spherical Harmonics?: true
    Max angular momentum: 2

   => Loading Basis Set <=

    Name: (AUG-CC-PVDZ AUX)
    Role: JKFIT
    Keyword: DF_BASIS_SCF
    atoms 1, 4     entry O          line   270 file C:\Users\64292\Anaconda3\envs\qm-tools\lib\share\psi4\basis\aug-cc-pvdz-jkfit.gbs 
    atoms 2-3, 5-6 entry H          line    70 file C:\Users\64292\Anaconda3\envs\qm-tools\lib\share\psi4\basis\aug-cc-pvdz-jkfit.gbs 

  ==> Integral Setup <==

  DFHelper Memory: AOs need 0.017 GiB; user supplied 0.349 GiB. Using in-core AOs.

  ==> MemDFJK: Density-Fitted J/K Matrices <==

    J tasked:                   Yes
    K tasked:                   Yes
    wK tasked:                   No
    OpenMP threads:               1
    Memory [MiB]:               357
    Algorithm:                 Core
    Schwarz Cutoff:           1E-12
    Mask sparsity (%):       0.0000
    Fitting Condition:        1E-10

   => Auxiliary Basis Set <=

  Basis Set: (AUG-CC-PVDZ AUX)
    Blend: AUG-CC-PVDZ-JKFIT
    Number of shells: 104
    Number of basis functions: 300
    Number of Cartesian functions: 342
    Spherical Harmonics?: true
    Max angular momentum: 3

  Minimum eigenvalue in the overlap matrix is 2.0263133440E-03.
  Reciprocal condition number of the overlap matrix is 2.7135490675E-04.
    Using symmetric orthogonalization.

  ==> Pre-Iterations <==

  SCF Guess: Superposition of Atomic Densities via on-the-fly atomic UHF (no occupation information).

   -------------------------
    Irrep   Nso     Nmo    
   -------------------------
     A         82      82 
   -------------------------
    Total      82      82
   -------------------------

  ==> Iterations <==

                           Total Energy        Delta E     RMS |[F,P]|

   @DF-RHF iter SAD:   -75.41487086205115   -7.54149e+01   0.00000e+00 
   @DF-RHF iter   1:   -75.94942859695414   -5.34558e-01   5.50669e-03 DIIS/ADIIS
   @DF-RHF iter   2:   -76.00131062101036   -5.18820e-02   3.77680e-03 DIIS/ADIIS
   @DF-RHF iter   3:   -76.03527146062582   -3.39608e-02   2.81133e-04 DIIS/ADIIS
   @DF-RHF iter   4:   -76.03572490749929   -4.53447e-04   6.60422e-05 DIIS
   @DF-RHF iter   5:   -76.03575508046200   -3.01730e-05   1.56447e-05 DIIS
   @DF-RHF iter   6:   -76.03575765754894   -2.57709e-06   3.09734e-06 DIIS
   @DF-RHF iter   7:   -76.03575776130225   -1.03753e-07   5.06015e-07 DIIS
  Energy and wave function converged.


  ==> Post-Iterations <==

    Orbital Energies [Eh]
    ---------------------

    Doubly Occupied:                                                      

       1A    -20.584233     2A     -1.335632     3A     -0.696483  
       4A     -0.577351     5A     -0.506063  

    Virtual:                                                              

       6A      0.024913     7A      0.050668     8A      0.058031  
       9A      0.079280    10A      0.134425    11A      0.150535  
      12A      0.186632    13A      0.192250    14A      0.220573  
      15A      0.226888    16A      0.229378    17A      0.271232  
      18A      0.330069    19A      0.358140    20A      0.376836  
      21A      0.387104    22A      0.397627    23A      0.415568  
      24A      0.424138    25A      0.475694    26A      0.483044  
      27A      0.493456    28A      0.538529    29A      0.554370  
      30A      0.577259    31A      0.616881    32A      0.650927  
      33A      0.741613    34A      0.862285    35A      0.916629  
      36A      0.978884    37A      1.053007    38A      1.110271  
      39A      1.159283    40A      1.176270    41A      1.182380  
      42A      1.199595    43A      1.280149    44A      1.297034  
      45A      1.305197    46A      1.329837    47A      1.401022  
      48A      1.453953    49A      1.501530    50A      1.588468  
      51A      1.746969    52A      1.984173    53A      1.996780  
      54A      2.065555    55A      2.080304    56A      2.351286  
      57A      2.379451    58A      2.383307    59A      2.408557  
      60A      2.452934    61A      2.480677    62A      2.622634  
      63A      2.717084    64A      2.958344    65A      2.990551  
      66A      3.452683    67A      3.676661    68A      3.704975  
      69A      3.737987    70A      3.965276    71A      3.981792  
      72A      4.054825    73A      4.309946    74A      4.924400  
      75A      4.934631    76A      5.060866    77A      5.324335  
      78A      5.377293    79A      5.604673    80A      6.413227  
      81A      6.805815    82A     33.529925  

    Final Occupation by Irrep:
              A 
    DOCC [     5 ]

  @DF-RHF Final Energy:   -76.03575776130225

   => Energetics <=

    Nuclear Repulsion Energy =              8.8014203545751499
    One-Electron Energy =                -122.2748100241250171
    Two-Electron Energy =                  37.4376319082476172
    Total Energy =                        -76.0357577613022499

Computation Completed


Properties will be evaluated at   0.000000,   0.000000,   0.000000 [a0]

Properties computed using the SCF density matrix


 Multipole Moments:

 ------------------------------------------------------------------------------------
     Multipole            Electronic (a.u.)      Nuclear  (a.u.)        Total (a.u.)
 ------------------------------------------------------------------------------------

 L = 1.  Multiply by 2.5417464519 to convert [e a0] to [Debye]
 Dipole X            :          0.0000749            0.0000000            0.0000749
 Dipole Y            :         -0.6855985            1.3175347            0.6319362
 Dipole Z            :         27.3987955          -26.9099734            0.4888221
 Magnitude           :                                                    0.7989308

 ------------------------------------------------------------------------------------

*** tstop() called on Lenovo-Y540-Zoha at Tue Sep 27 18:41:00 2022
Module time:
	user time   =        nan seconds =        nan minutes
	system time =        nan seconds =        nan minutes
	total time  =          1 seconds =       0.02 minutes
Total time:
	user time   =        nan seconds =        nan minutes
	system time =        nan seconds =        nan minutes
	total time  =        879 seconds =      14.65 minutes

    Psi4 stopped on: Tuesday, 27 September 2022 06:41PM
    Psi4 wall time for execution: 0:00:01.01


    -----------------------------------------------------------------------
          Psi4: An Open-Source Ab Initio Electronic Structure Package
                               Psi4 1.6.1 release

                         Git: Rev {HEAD} 5b9f6e3 


    D. G. A. Smith, L. A. Burns, A. C. Simmonett, R. M. Parrish,
    M. C. Schieber, R. Galvelis, P. Kraus, H. Kruse, R. Di Remigio,
    A. Alenaizan, A. M. James, S. Lehtola, J. P. Misiewicz, M. Scheurer,
    R. A. Shaw, J. B. Schriber, Y. Xie, Z. L. Glick, D. A. Sirianni,
    J. S. O'Brien, J. M. Waldrop, A. Kumar, E. G. Hohenstein,
    B. P. Pritchard, B. R. Brooks, H. F. Schaefer III, A. Yu. Sokolov,
    K. Patkowski, A. E. DePrince III, U. Bozkaya, R. A. King,
    F. A. Evangelista, J. M. Turney, T. D. Crawford, C. D. Sherrill,
    J. Chem. Phys. 152(18) 184108 (2020). https://doi.org/10.1063/5.0006002

                            Additional Code Authors
    E. T. Seidl, C. L. Janssen, E. F. Valeev, M. L. Leininger,
    J. F. Gonthier, R. M. Richard, H. R. McAlexander, M. Saitow, X. Wang,
    P. Verma, M. H. Lechner, and A. Jiang

             Previous Authors, Complete List of Code Contributors,
                       and Citations for Specific Modules
    https://github.com/psi4/psi4/blob/master/codemeta.json
    https://github.com/psi4/psi4/graphs/contributors
    http://psicode.org/psi4manual/master/introduction.html#citing-psifour

    -----------------------------------------------------------------------


    Psi4 started on: Tuesday, 27 September 2022 06:25PM

    Process ID: 10544
    Host:       Lenovo-Y540-Zoha
    PSIDATADIR: C:\Users\64292\Anaconda3\envs\qm-tools\lib\share\psi4
    Memory:     476.8 MiB
    Threads:    1
    
  ==> Input QCSchema <==

--------------------------------------------------------------------------
{'driver': 'energy',
 'extras': {'psiapi': True, 'wfn_qcvars_only': True},
 'id': None,
 'keywords': {'function_kwargs': {}},
 'model': {'basis': 'aug-cc-pvdz', 'method': 'scf'},
 'molecule': {'atom_labels': ['1', '2', '3', '5', '6', '7'],
              'atomic_numbers': [8, 1, 1, 8, 1, 1],
              'fix_com': True,
              'fix_orientation': True,
              'fragment_charges': [0.0, 0.0],
              'fragment_multiplicities': [1, 1],
              'fragments': [[0, 1, 2], [3, 4, 5]],
              'geometry': [3.6985726236876735e-17, -0.05118338925575475, -2.8325911243126685, 3.6985726236876735e-17,
                           -0.05118338925575475, -0.9428649988548403, 3.6985726236876735e-17, 1.7781852282291912,
                           -3.3063793582306, 3.6985726236876735e-17, -0.05118338925575475, 2.6476146395150337,
                           -1.5807867135447522, -0.47475391255592003, 3.592477702243947, 1.5807867135447509,
                           0.3723871340444087, 3.592477702243948],
              'mass_numbers': [16, 1, 1, 16, 1, 1],
              'masses': [15.99491461957, 1.00782503223, 1.00782503223, 15.99491461957, 1.00782503223, 1.00782503223],
              'molecular_charge': 0.0,
              'molecular_multiplicity': 1,
              'name': 'H4O2',
              'provenance': {'creator': 'QCElemental',
                             'routine': 'qcelemental.molparse.from_string',
                             'version': 'v0.25.0'},
              'real': [True, True, True, True, True, True],
              'schema_name': 'qcschema_molecule',
              'schema_version': 2,
              'symbols': ['O', 'H', 'H', 'O', 'H', 'H'],
              'validated': True},
 'protocols': {'stdout': True},
 'provenance': {'creator': 'QCElemental', 'routine': 'qcelemental.models.results', 'version': 'v0.25.0'},
 'schema_name': 'qcschema_input',
 'schema_version': 1}
--------------------------------------------------------------------------

Scratch directory: C:\Users\64292\AppData\Local\Temp/

*** tstart() called on Lenovo-Y540-Zoha
*** at Tue Sep 27 18:41:00 2022

   => Loading Basis Set <=

    Name: AUG-CC-PVDZ
    Role: ORBITAL
    Keyword: BASIS
    atoms 1, 4     entry O          line   254 file C:\Users\64292\Anaconda3\envs\qm-tools\lib\share\psi4\basis\aug-cc-pvdz.gbs 
    atoms 2-3, 5-6 entry H          line    40 file C:\Users\64292\Anaconda3\envs\qm-tools\lib\share\psi4\basis\aug-cc-pvdz.gbs 


         ---------------------------------------------------------
                                   SCF
               by Justin Turney, Rob Parrish, Andy Simmonett
                          and Daniel G. A. Smith
                              RHF Reference
                        1 Threads,    476 MiB Core
         ---------------------------------------------------------

  ==> Geometry <==

    Molecular point group: c1
    Full point group: C1

    Geometry (in Bohr), charge = 0, multiplicity = 1:

       Center              X                  Y                   Z               Mass       
    ------------   -----------------  -----------------  -----------------  -----------------
         O            0.000000000000    -0.051183389256    -2.832591124313    15.994914619570
         H            0.000000000000    -0.051183389256    -0.942864998855     1.007825032230
         H            0.000000000000     1.778185228229    -3.306379358231     1.007825032230
         O            0.000000000000    -0.051183389256     2.647614639515    15.994914619570
         H           -1.580786713545    -0.474753912556     3.592477702244     1.007825032230
         H            1.580786713545     0.372387134044     3.592477702244     1.007825032230

  Running in c1 symmetry.

  Rotational constants: A =      7.04771  B =      0.21405  C =      0.21171 [cm^-1]
  Rotational constants: A = 211285.11503  B =   6417.07627  C =   6347.04443 [MHz]
  Nuclear repulsion =   35.865873898934055

  Charge       = 0
  Multiplicity = 1
  Electrons    = 20
  Nalpha       = 10
  Nbeta        = 10

  ==> Algorithm <==

  SCF Algorithm Type is DF.
  DIIS enabled.
  MOM disabled.
  Fractional occupation disabled.
  Guess Type is SAD.
  Energy threshold   = 1.00e-06
  Density threshold  = 1.00e-06
  Integral threshold = 1.00e-12

  ==> Primary Basis <==

  Basis Set: AUG-CC-PVDZ
    Blend: AUG-CC-PVDZ
    Number of shells: 38
    Number of basis functions: 82
    Number of Cartesian functions: 86
    Spherical Harmonics?: true
    Max angular momentum: 2

   => Loading Basis Set <=

    Name: (AUG-CC-PVDZ AUX)
    Role: JKFIT
    Keyword: DF_BASIS_SCF
    atoms 1, 4     entry O          line   270 file C:\Users\64292\Anaconda3\envs\qm-tools\lib\share\psi4\basis\aug-cc-pvdz-jkfit.gbs 
    atoms 2-3, 5-6 entry H          line    70 file C:\Users\64292\Anaconda3\envs\qm-tools\lib\share\psi4\basis\aug-cc-pvdz-jkfit.gbs 

  ==> Integral Setup <==

  DFHelper Memory: AOs need 0.017 GiB; user supplied 0.349 GiB. Using in-core AOs.

  ==> MemDFJK: Density-Fitted J/K Matrices <==

    J tasked:                   Yes
    K tasked:                   Yes
    wK tasked:                   No
    OpenMP threads:               1
    Memory [MiB]:               357
    Algorithm:                 Core
    Schwarz Cutoff:           1E-12
    Mask sparsity (%):       0.0000
    Fitting Condition:        1E-10

   => Auxiliary Basis Set <=

  Basis Set: (AUG-CC-PVDZ AUX)
    Blend: AUG-CC-PVDZ-JKFIT
    Number of shells: 104
    Number of basis functions: 300
    Number of Cartesian functions: 342
    Spherical Harmonics?: true
    Max angular momentum: 3

  Minimum eigenvalue in the overlap matrix is 2.0263133440E-03.
  Reciprocal condition number of the overlap matrix is 2.7135490675E-04.
    Using symmetric orthogonalization.

  ==> Pre-Iterations <==

  SCF Guess: Superposition of Atomic Densities via on-the-fly atomic UHF (no occupation information).

   -------------------------
    Irrep   Nso     Nmo    
   -------------------------
     A         82      82 
   -------------------------
    Total      82      82
   -------------------------

  ==> Iterations <==

                           Total Energy        Delta E     RMS |[F,P]|

   @DF-RHF iter SAD:  -150.90504641658782   -1.50905e+02   0.00000e+00 
   @DF-RHF iter   1:  -151.91384952527719   -1.00880e+00   7.48795e-03 DIIS/ADIIS
   @DF-RHF iter   2:  -152.01405122203801   -1.00202e-01   4.89889e-03 DIIS/ADIIS
   @DF-RHF iter   3:  -152.07080160706602   -5.67504e-02   4.15458e-04 DIIS/ADIIS
   @DF-RHF iter   4:  -152.07178419549211   -9.82588e-04   9.26563e-05 DIIS
   @DF-RHF iter   5:  -152.07184046298426   -5.62675e-05   3.34158e-05 DIIS
   @DF-RHF iter   6:  -152.07184666193379   -6.19895e-06   1.31732e-05 DIIS
   @DF-RHF iter   7:  -152.07184770694630   -1.04501e-06   2.49423e-06 DIIS
   @DF-RHF iter   8:  -152.07184777434580   -6.73995e-08   4.74109e-07 DIIS
  Energy and wave function converged.


  ==> Post-Iterations <==

    Orbital Energies [Eh]
    ---------------------

    Doubly Occupied:                                                      

       1A    -20.603402     2A    -20.545718     3A     -1.356900  
       4A     -1.300634     5A     -0.749573     6A     -0.672640  
       7A     -0.586173     8A     -0.535746     9A     -0.529191  
      10A     -0.471310  

    Virtual:                                                              

      11A      0.025208    12A      0.050588    13A      0.057560  
      14A      0.088664    15A      0.174109    16A      0.181848  
      17A      0.205098    18A      0.212310    19A      0.223356  
      20A      0.237852    21A      0.247609    22A      0.285574  
      23A      0.304834    24A      0.311980    25A      0.348830  
      26A      0.357952    27A      0.405258    28A      0.427291  
      29A      0.458278    30A      0.500881    31A      0.515247  
      32A      0.535149    33A      0.547718    34A      0.598915  
      35A      0.629019    36A      0.644878    37A      0.671289  
      38A      0.778844    39A      0.836245    40A      0.861910  
      41A      0.939569    42A      0.987934    43A      1.119733  
      44A      1.132192    45A      1.141016    46A      1.187984  
      47A      1.216271    48A      1.226052    49A      1.360800  
      50A      1.428607    51A      1.469353    52A      1.511980  
      53A      1.542782    54A      1.624203    55A      1.639516  
      56A      1.924737    57A      1.995668    58A      2.015561  
      59A      2.028980    60A      2.043980    61A      2.055257  
      62A      2.172834    63A      2.385556    64A      2.411501  
      65A      2.452199    66A      2.495018    67A      2.530456  
      68A      2.747680    69A      2.803009    70A      2.807054  
      71A      2.996183    72A      3.032446    73A      3.671824  
      74A      3.698790    75A      3.709707    76A      3.742208  
      77A      3.773732    78A      3.827218    79A      4.092271  
      80A      4.123166    81A      4.167930    82A      4.373234  

    Final Occupation by Irrep:
              A 
    DOCC [    10 ]

  @DF-RHF Final Energy:  -152.07184777434580

   => Energetics <=

    Nuclear Repulsion Energy =             35.8658738989340549
    One-Electron Energy =                -281.1728559872394158
    Two-Electron Energy =                  93.2351343139595485
    Total Energy =                       -152.0718477743457981

Computation Completed


Properties will be evaluated at   0.000000,   0.000000,   0.000000 [a0]

Properties computed using the SCF density matrix


 Multipole Moments:

 ------------------------------------------------------------------------------------
     Multipole            Electronic (a.u.)      Nuclear  (a.u.)        Total (a.u.)
 ------------------------------------------------------------------------------------

 L = 1.  Multiply by 2.5417464519 to convert [e a0] to [Debye]
 Dipole X            :         -0.0008153           -0.0000000           -0.0008153
 Dipole Y            :         -0.2011918            0.8057008            0.6045090
 Dipole Z            :         -0.0098333            1.4558992            1.4460659
 Magnitude           :                                                    1.5673348

 ------------------------------------------------------------------------------------

*** tstop() called on Lenovo-Y540-Zoha at Tue Sep 27 18:41:01 2022
Module time:
	user time   =        nan seconds =        nan minutes
	system time =        nan seconds =        nan minutes
	total time  =          1 seconds =       0.02 minutes
Total time:
	user time   =        nan seconds =        nan minutes
	system time =        nan seconds =        nan minutes
	total time  =        880 seconds =      14.67 minutes

    Psi4 stopped on: Tuesday, 27 September 2022 06:41PM
    Psi4 wall time for execution: 0:00:01.03


  //>>>>>>>>>>>>>>>>>>>>>>>>>>>>>>>>>>>//
  //          ManyBody Results         //
  //<<<<<<<<<<<<<<<<<<<<<<<<<<<<<<<<<<<//


   ==> N-Body: Counterpoise Corrected (CP) energies <==

        n-Body     Total Energy            Interaction Energy                          N-body Contribution to Interaction Energy
                   [Eh]                    [Eh]                  [kcal/mol]            [Eh]                  [kcal/mol]
             1  N/A                         0.000000000000        0.000000000000        0.000000000000        0.000000000000
  FULL/RTN   2  N/A                        -0.006090999462       -3.822159866949       -0.006090999462       -3.822159866949

