
Scratch directory: C:\Users\64292\AppData\Local\Temp/

  //>>>>>>>>>>>>>>>>>>>>>>>>>>>>>>>>>>>>>//
  // ManyBody Setup: N-Body Levels [1, 2]//
  //<<<<<<<<<<<<<<<<<<<<<<<<<<<<<<<<<<<<<//

        Number of 1-body computations:     2
        Number of 2-body computations:     1

    -----------------------------------------------------------------------
          Psi4: An Open-Source Ab Initio Electronic Structure Package
                               Psi4 1.6.1 release

                         Git: Rev {HEAD} 5b9f6e3 


    D. G. A. Smith, L. A. Burns, A. C. Simmonett, R. M. Parrish,
    M. C. Schieber, R. Galvelis, P. Kraus, H. Kruse, R. Di Remigio,
    A. Alenaizan, A. M. James, S. Lehtola, J. P. Misiewicz, M. Scheurer,
    R. A. Shaw, J. B. Schriber, Y. Xie, Z. L. Glick, D. A. Sirianni,
    J. S. O'Brien, J. M. Waldrop, A. Kumar, E. G. Hohenstein,
    B. P. Pritchard, B. R. Brooks, H. F. Schaefer III, A. Yu. Sokolov,
    K. Patkowski, A. E. DePrince III, U. Bozkaya, R. A. King,
    F. A. Evangelista, J. M. Turney, T. D. Crawford, C. D. Sherrill,
    J. Chem. Phys. 152(18) 184108 (2020). https://doi.org/10.1063/5.0006002

                            Additional Code Authors
    E. T. Seidl, C. L. Janssen, E. F. Valeev, M. L. Leininger,
    J. F. Gonthier, R. M. Richard, H. R. McAlexander, M. Saitow, X. Wang,
    P. Verma, M. H. Lechner, and A. Jiang

             Previous Authors, Complete List of Code Contributors,
                       and Citations for Specific Modules
    https://github.com/psi4/psi4/blob/master/codemeta.json
    https://github.com/psi4/psi4/graphs/contributors
    http://psicode.org/psi4manual/master/introduction.html#citing-psifour

    -----------------------------------------------------------------------


    Psi4 started on: Tuesday, 27 September 2022 06:25PM

    Process ID: 10544
    Host:       Lenovo-Y540-Zoha
    PSIDATADIR: C:\Users\64292\Anaconda3\envs\qm-tools\lib\share\psi4
    Memory:     476.8 MiB
    Threads:    1
    
  ==> Input QCSchema <==

--------------------------------------------------------------------------
{'driver': 'energy',
 'extras': {'psiapi': True, 'wfn_qcvars_only': True},
 'id': None,
 'keywords': {'function_kwargs': {}},
 'model': {'basis': 'aug-cc-pvdz', 'method': 'scf'},
 'molecule': {'atom_labels': ['1', '2', '3', '5', '6', '7'],
              'atomic_numbers': [8, 1, 1, 8, 1, 1],
              'fix_com': True,
              'fix_orientation': True,
              'fragment_charges': [0.0, 0.0],
              'fragment_multiplicities': [1, 1],
              'fragments': [[0, 1, 2], [3, 4, 5]],
              'geometry': [3.6985726236876735e-17, -0.05118338925575477, -2.927077430585559, 3.6985726236876735e-17,
                           -0.05118338925575477, -1.0373513051277308, 3.6985726236876735e-17, 1.7781852282291912,
                           -3.4008656645034905, 3.6985726236876735e-17, -0.05118338925575477, 2.742100945787925,
                           1.5807867135447509, -0.4747539125559204, 3.6869640085168394, -1.5807867135447522,
                           0.3723871340444095, 3.6869640085168385],
              'mass_numbers': [16, 1, 1, 16, 1, 1],
              'masses': [15.99491461957, 1.00782503223, 1.00782503223, 15.99491461957, 1.00782503223, 1.00782503223],
              'molecular_charge': 0.0,
              'molecular_multiplicity': 1,
              'name': 'H4O2',
              'provenance': {'creator': 'QCElemental',
                             'routine': 'qcelemental.molparse.from_string',
                             'version': 'v0.25.0'},
              'real': [False, False, False, True, True, True],
              'schema_name': 'qcschema_molecule',
              'schema_version': 2,
              'symbols': ['O', 'H', 'H', 'O', 'H', 'H'],
              'validated': True},
 'protocols': {'stdout': True},
 'provenance': {'creator': 'QCElemental', 'routine': 'qcelemental.models.results', 'version': 'v0.25.0'},
 'schema_name': 'qcschema_input',
 'schema_version': 1}
--------------------------------------------------------------------------

Scratch directory: C:\Users\64292\AppData\Local\Temp/

*** tstart() called on Lenovo-Y540-Zoha
*** at Tue Sep 27 18:43:01 2022

   => Loading Basis Set <=

    Name: AUG-CC-PVDZ
    Role: ORBITAL
    Keyword: BASIS
    atoms 1, 4     entry O          line   254 file C:\Users\64292\Anaconda3\envs\qm-tools\lib\share\psi4\basis\aug-cc-pvdz.gbs 
    atoms 2-3, 5-6 entry H          line    40 file C:\Users\64292\Anaconda3\envs\qm-tools\lib\share\psi4\basis\aug-cc-pvdz.gbs 


         ---------------------------------------------------------
                                   SCF
               by Justin Turney, Rob Parrish, Andy Simmonett
                          and Daniel G. A. Smith
                              RHF Reference
                        1 Threads,    476 MiB Core
         ---------------------------------------------------------

  ==> Geometry <==

    Molecular point group: c1
    Full point group: C1

    Geometry (in Bohr), charge = 0, multiplicity = 1:

       Center              X                  Y                   Z               Mass       
    ------------   -----------------  -----------------  -----------------  -----------------
      Gh(O)           0.000000000000    -0.051183389256    -2.927077430586    15.994914619570
      Gh(H)           0.000000000000    -0.051183389256    -1.037351305128     1.007825032230
      Gh(H)           0.000000000000     1.778185228229    -3.400865664503     1.007825032230
         O            0.000000000000    -0.051183389256     2.742100945788    15.994914619570
         H            1.580786713545    -0.474753912556     3.686964008517     1.007825032230
         H           -1.580786713545     0.372387134044     3.686964008517     1.007825032230

  Running in c1 symmetry.

  Rotational constants: A =      7.04653  B =      0.20046  C =      0.19841 [cm^-1]
  Rotational constants: A = 211249.53411  B =   6009.71922  C =   5948.26692 [MHz]
  Nuclear repulsion =    8.772355975749342

  Charge       = 0
  Multiplicity = 1
  Electrons    = 10
  Nalpha       = 5
  Nbeta        = 5

  ==> Algorithm <==

  SCF Algorithm Type is DF.
  DIIS enabled.
  MOM disabled.
  Fractional occupation disabled.
  Guess Type is SAD.
  Energy threshold   = 1.00e-06
  Density threshold  = 1.00e-06
  Integral threshold = 1.00e-12

  ==> Primary Basis <==

  Basis Set: AUG-CC-PVDZ
    Blend: AUG-CC-PVDZ
    Number of shells: 38
    Number of basis functions: 82
    Number of Cartesian functions: 86
    Spherical Harmonics?: true
    Max angular momentum: 2

   => Loading Basis Set <=

    Name: (AUG-CC-PVDZ AUX)
    Role: JKFIT
    Keyword: DF_BASIS_SCF
    atoms 1, 4     entry O          line   270 file C:\Users\64292\Anaconda3\envs\qm-tools\lib\share\psi4\basis\aug-cc-pvdz-jkfit.gbs 
    atoms 2-3, 5-6 entry H          line    70 file C:\Users\64292\Anaconda3\envs\qm-tools\lib\share\psi4\basis\aug-cc-pvdz-jkfit.gbs 

  ==> Integral Setup <==

  DFHelper Memory: AOs need 0.017 GiB; user supplied 0.349 GiB. Using in-core AOs.

  ==> MemDFJK: Density-Fitted J/K Matrices <==

    J tasked:                   Yes
    K tasked:                   Yes
    wK tasked:                   No
    OpenMP threads:               1
    Memory [MiB]:               357
    Algorithm:                 Core
    Schwarz Cutoff:           1E-12
    Mask sparsity (%):       0.0000
    Fitting Condition:        1E-10

   => Auxiliary Basis Set <=

  Basis Set: (AUG-CC-PVDZ AUX)
    Blend: AUG-CC-PVDZ-JKFIT
    Number of shells: 104
    Number of basis functions: 300
    Number of Cartesian functions: 342
    Spherical Harmonics?: true
    Max angular momentum: 3

  Minimum eigenvalue in the overlap matrix is 2.0718004747E-03.
  Reciprocal condition number of the overlap matrix is 2.8262704323E-04.
    Using symmetric orthogonalization.

  ==> Pre-Iterations <==

  SCF Guess: Superposition of Atomic Densities via on-the-fly atomic UHF (no occupation information).

   -------------------------
    Irrep   Nso     Nmo    
   -------------------------
     A         82      82 
   -------------------------
    Total      82      82
   -------------------------

  ==> Iterations <==

                           Total Energy        Delta E     RMS |[F,P]|

   @DF-RHF iter SAD:   -75.40236275326062   -7.54024e+01   0.00000e+00 
   @DF-RHF iter   1:   -75.94515185298243   -5.42789e-01   5.50969e-03 DIIS/ADIIS
   @DF-RHF iter   2:   -75.99634861285239   -5.11968e-02   3.73204e-03 DIIS/ADIIS
   @DF-RHF iter   3:   -76.02944254312939   -3.30939e-02   2.79094e-04 DIIS/ADIIS
   @DF-RHF iter   4:   -76.02991349313970   -4.70950e-04   6.67687e-05 DIIS
   @DF-RHF iter   5:   -76.02994611078290   -3.26176e-05   1.62973e-05 DIIS
   @DF-RHF iter   6:   -76.02994918736938   -3.07659e-06   3.50023e-06 DIIS
   @DF-RHF iter   7:   -76.02994934269559   -1.55326e-07   6.43783e-07 DIIS
  Energy and wave function converged.


  ==> Post-Iterations <==

    Orbital Energies [Eh]
    ---------------------

    Doubly Occupied:                                                      

       1A    -20.575802     2A     -1.325812     3A     -0.721152  
       4A     -0.548220     5A     -0.500634  

    Virtual:                                                              

       6A      0.032536     7A      0.054624     8A      0.055803  
       9A      0.080121    10A      0.168024    11A      0.171520  
      12A      0.181659    13A      0.197860    14A      0.211567  
      15A      0.224999    16A      0.239097    17A      0.254021  
      18A      0.317790    19A      0.324864    20A      0.371774  
      21A      0.399740    22A      0.434502    23A      0.453988  
      24A      0.465762    25A      0.508600    26A      0.527907  
      27A      0.534685    28A      0.548355    29A      0.566880  
      30A      0.617534    31A      0.654298    32A      0.661008  
      33A      0.709202    34A      0.857451    35A      0.882141  
      36A      0.945336    37A      0.956218    38A      1.134482  
      39A      1.146738    40A      1.187295    41A      1.207699  
      42A      1.226963    43A      1.284592    44A      1.336954  
      45A      1.393354    46A      1.406727    47A      1.431611  
      48A      1.488439    49A      1.569834    50A      1.577394  
      51A      1.800306    52A      1.993938    53A      2.051418  
      54A      2.055445    55A      2.148337    56A      2.321995  
      57A      2.364934    58A      2.408051    59A      2.468284  
      60A      2.487560    61A      2.539946    62A      2.631247  
      63A      2.749838    64A      2.834384    65A      2.936434  
      66A      3.430210    67A      3.700946    68A      3.723198  
      69A      3.849262    70A      3.909853    71A      4.086224  
      72A      4.146919    73A      4.190959    74A      4.913925  
      75A      4.960044    76A      5.004164    77A      5.177785  
      78A      5.488729    79A      5.693090    80A      6.460898  
      81A      6.892397    82A     33.571869  

    Final Occupation by Irrep:
              A 
    DOCC [     5 ]

  @DF-RHF Final Energy:   -76.02994934269559

   => Energetics <=

    Nuclear Repulsion Energy =              8.7723559757493419
    One-Electron Energy =                -122.2613337978134211
    Two-Electron Energy =                  37.4590284793684845
    Total Energy =                        -76.0299493426955877

Computation Completed


Properties will be evaluated at   0.000000,   0.000000,   0.000000 [a0]

Properties computed using the SCF density matrix


 Multipole Moments:

 ------------------------------------------------------------------------------------
     Multipole            Electronic (a.u.)      Nuclear  (a.u.)        Total (a.u.)
 ------------------------------------------------------------------------------------

 L = 1.  Multiply by 2.5417464519 to convert [e a0] to [Debye]
 Dipole X            :         -0.0000546           -0.0000000           -0.0000546
 Dipole Y            :          0.5115595           -0.5118339           -0.0002744
 Dipole Z            :        -28.6256432           29.3107356            0.6850924
 Magnitude           :                                                    0.6850924

 ------------------------------------------------------------------------------------

*** tstop() called on Lenovo-Y540-Zoha at Tue Sep 27 18:43:02 2022
Module time:
	user time   =        nan seconds =        nan minutes
	system time =        nan seconds =        nan minutes
	total time  =          1 seconds =       0.02 minutes
Total time:
	user time   =        nan seconds =        nan minutes
	system time =        nan seconds =        nan minutes
	total time  =       1001 seconds =      16.68 minutes

    Psi4 stopped on: Tuesday, 27 September 2022 06:43PM
    Psi4 wall time for execution: 0:00:01.02


    -----------------------------------------------------------------------
          Psi4: An Open-Source Ab Initio Electronic Structure Package
                               Psi4 1.6.1 release

                         Git: Rev {HEAD} 5b9f6e3 


    D. G. A. Smith, L. A. Burns, A. C. Simmonett, R. M. Parrish,
    M. C. Schieber, R. Galvelis, P. Kraus, H. Kruse, R. Di Remigio,
    A. Alenaizan, A. M. James, S. Lehtola, J. P. Misiewicz, M. Scheurer,
    R. A. Shaw, J. B. Schriber, Y. Xie, Z. L. Glick, D. A. Sirianni,
    J. S. O'Brien, J. M. Waldrop, A. Kumar, E. G. Hohenstein,
    B. P. Pritchard, B. R. Brooks, H. F. Schaefer III, A. Yu. Sokolov,
    K. Patkowski, A. E. DePrince III, U. Bozkaya, R. A. King,
    F. A. Evangelista, J. M. Turney, T. D. Crawford, C. D. Sherrill,
    J. Chem. Phys. 152(18) 184108 (2020). https://doi.org/10.1063/5.0006002

                            Additional Code Authors
    E. T. Seidl, C. L. Janssen, E. F. Valeev, M. L. Leininger,
    J. F. Gonthier, R. M. Richard, H. R. McAlexander, M. Saitow, X. Wang,
    P. Verma, M. H. Lechner, and A. Jiang

             Previous Authors, Complete List of Code Contributors,
                       and Citations for Specific Modules
    https://github.com/psi4/psi4/blob/master/codemeta.json
    https://github.com/psi4/psi4/graphs/contributors
    http://psicode.org/psi4manual/master/introduction.html#citing-psifour

    -----------------------------------------------------------------------


    Psi4 started on: Tuesday, 27 September 2022 06:25PM

    Process ID: 10544
    Host:       Lenovo-Y540-Zoha
    PSIDATADIR: C:\Users\64292\Anaconda3\envs\qm-tools\lib\share\psi4
    Memory:     476.8 MiB
    Threads:    1
    
  ==> Input QCSchema <==

--------------------------------------------------------------------------
{'driver': 'energy',
 'extras': {'psiapi': True, 'wfn_qcvars_only': True},
 'id': None,
 'keywords': {'function_kwargs': {}},
 'model': {'basis': 'aug-cc-pvdz', 'method': 'scf'},
 'molecule': {'atom_labels': ['1', '2', '3', '5', '6', '7'],
              'atomic_numbers': [8, 1, 1, 8, 1, 1],
              'fix_com': True,
              'fix_orientation': True,
              'fragment_charges': [0.0, 0.0],
              'fragment_multiplicities': [1, 1],
              'fragments': [[0, 1, 2], [3, 4, 5]],
              'geometry': [3.6985726236876735e-17, -0.05118338925575477, -2.927077430585559, 3.6985726236876735e-17,
                           -0.05118338925575477, -1.0373513051277308, 3.6985726236876735e-17, 1.7781852282291912,
                           -3.4008656645034905, 3.6985726236876735e-17, -0.05118338925575477, 2.742100945787925,
                           1.5807867135447509, -0.4747539125559204, 3.6869640085168394, -1.5807867135447522,
                           0.3723871340444095, 3.6869640085168385],
              'mass_numbers': [16, 1, 1, 16, 1, 1],
              'masses': [15.99491461957, 1.00782503223, 1.00782503223, 15.99491461957, 1.00782503223, 1.00782503223],
              'molecular_charge': 0.0,
              'molecular_multiplicity': 1,
              'name': 'H4O2',
              'provenance': {'creator': 'QCElemental',
                             'routine': 'qcelemental.molparse.from_string',
                             'version': 'v0.25.0'},
              'real': [True, True, True, False, False, False],
              'schema_name': 'qcschema_molecule',
              'schema_version': 2,
              'symbols': ['O', 'H', 'H', 'O', 'H', 'H'],
              'validated': True},
 'protocols': {'stdout': True},
 'provenance': {'creator': 'QCElemental', 'routine': 'qcelemental.models.results', 'version': 'v0.25.0'},
 'schema_name': 'qcschema_input',
 'schema_version': 1}
--------------------------------------------------------------------------

Scratch directory: C:\Users\64292\AppData\Local\Temp/

*** tstart() called on Lenovo-Y540-Zoha
*** at Tue Sep 27 18:43:02 2022

   => Loading Basis Set <=

    Name: AUG-CC-PVDZ
    Role: ORBITAL
    Keyword: BASIS
    atoms 1, 4     entry O          line   254 file C:\Users\64292\Anaconda3\envs\qm-tools\lib\share\psi4\basis\aug-cc-pvdz.gbs 
    atoms 2-3, 5-6 entry H          line    40 file C:\Users\64292\Anaconda3\envs\qm-tools\lib\share\psi4\basis\aug-cc-pvdz.gbs 


         ---------------------------------------------------------
                                   SCF
               by Justin Turney, Rob Parrish, Andy Simmonett
                          and Daniel G. A. Smith
                              RHF Reference
                        1 Threads,    476 MiB Core
         ---------------------------------------------------------

  ==> Geometry <==

    Molecular point group: c1
    Full point group: C1

    Geometry (in Bohr), charge = 0, multiplicity = 1:

       Center              X                  Y                   Z               Mass       
    ------------   -----------------  -----------------  -----------------  -----------------
         O            0.000000000000    -0.051183389256    -2.927077430586    15.994914619570
         H            0.000000000000    -0.051183389256    -1.037351305128     1.007825032230
         H            0.000000000000     1.778185228229    -3.400865664503     1.007825032230
      Gh(O)           0.000000000000    -0.051183389256     2.742100945788    15.994914619570
      Gh(H)           1.580786713545    -0.474753912556     3.686964008517     1.007825032230
      Gh(H)          -1.580786713545     0.372387134044     3.686964008517     1.007825032230

  Running in c1 symmetry.

  Rotational constants: A =      7.04653  B =      0.20046  C =      0.19841 [cm^-1]
  Rotational constants: A = 211249.53411  B =   6009.71922  C =   5948.26692 [MHz]
  Nuclear repulsion =    8.801420354575150

  Charge       = 0
  Multiplicity = 1
  Electrons    = 10
  Nalpha       = 5
  Nbeta        = 5

  ==> Algorithm <==

  SCF Algorithm Type is DF.
  DIIS enabled.
  MOM disabled.
  Fractional occupation disabled.
  Guess Type is SAD.
  Energy threshold   = 1.00e-06
  Density threshold  = 1.00e-06
  Integral threshold = 1.00e-12

  ==> Primary Basis <==

  Basis Set: AUG-CC-PVDZ
    Blend: AUG-CC-PVDZ
    Number of shells: 38
    Number of basis functions: 82
    Number of Cartesian functions: 86
    Spherical Harmonics?: true
    Max angular momentum: 2

   => Loading Basis Set <=

    Name: (AUG-CC-PVDZ AUX)
    Role: JKFIT
    Keyword: DF_BASIS_SCF
    atoms 1, 4     entry O          line   270 file C:\Users\64292\Anaconda3\envs\qm-tools\lib\share\psi4\basis\aug-cc-pvdz-jkfit.gbs 
    atoms 2-3, 5-6 entry H          line    70 file C:\Users\64292\Anaconda3\envs\qm-tools\lib\share\psi4\basis\aug-cc-pvdz-jkfit.gbs 

  ==> Integral Setup <==

  DFHelper Memory: AOs need 0.017 GiB; user supplied 0.349 GiB. Using in-core AOs.

  ==> MemDFJK: Density-Fitted J/K Matrices <==

    J tasked:                   Yes
    K tasked:                   Yes
    wK tasked:                   No
    OpenMP threads:               1
    Memory [MiB]:               357
    Algorithm:                 Core
    Schwarz Cutoff:           1E-12
    Mask sparsity (%):       0.0000
    Fitting Condition:        1E-10

   => Auxiliary Basis Set <=

  Basis Set: (AUG-CC-PVDZ AUX)
    Blend: AUG-CC-PVDZ-JKFIT
    Number of shells: 104
    Number of basis functions: 300
    Number of Cartesian functions: 342
    Spherical Harmonics?: true
    Max angular momentum: 3

  Minimum eigenvalue in the overlap matrix is 2.0718004747E-03.
  Reciprocal condition number of the overlap matrix is 2.8262704323E-04.
    Using symmetric orthogonalization.

  ==> Pre-Iterations <==

  SCF Guess: Superposition of Atomic Densities via on-the-fly atomic UHF (no occupation information).

   -------------------------
    Irrep   Nso     Nmo    
   -------------------------
     A         82      82 
   -------------------------
    Total      82      82
   -------------------------

  ==> Iterations <==

                           Total Energy        Delta E     RMS |[F,P]|

   @DF-RHF iter SAD:   -75.41487089314677   -7.54149e+01   0.00000e+00 
   @DF-RHF iter   1:   -75.94942271197276   -5.34552e-01   5.50617e-03 DIIS/ADIIS
   @DF-RHF iter   2:   -76.00130402582155   -5.18813e-02   3.77611e-03 DIIS/ADIIS
   @DF-RHF iter   3:   -76.03526235362932   -3.39583e-02   2.81133e-04 DIIS/ADIIS
   @DF-RHF iter   4:   -76.03571583147199   -4.53478e-04   6.60392e-05 DIIS
   @DF-RHF iter   5:   -76.03574599970695   -3.01682e-05   1.56392e-05 DIIS
   @DF-RHF iter   6:   -76.03574857475186   -2.57504e-06   3.09570e-06 DIIS
   @DF-RHF iter   7:   -76.03574867838590   -1.03634e-07   5.05594e-07 DIIS
  Energy and wave function converged.


  ==> Post-Iterations <==

    Orbital Energies [Eh]
    ---------------------

    Doubly Occupied:                                                      

       1A    -20.584241     2A     -1.335634     3A     -0.696487  
       4A     -0.577357     5A     -0.506067  

    Virtual:                                                              

       6A      0.024841     7A      0.050405     8A      0.057985  
       9A      0.078894    10A      0.134210    11A      0.150381  
      12A      0.185592    13A      0.190989    14A      0.220189  
      15A      0.226868    16A      0.228061    17A      0.269702  
      18A      0.328518    19A      0.358945    20A      0.373225  
      21A      0.385205    22A      0.399278    23A      0.415448  
      24A      0.422817    25A      0.472518    26A      0.484758  
      27A      0.495962    28A      0.531931    29A      0.547416  
      30A      0.572216    31A      0.613297    32A      0.649492  
      33A      0.740383    34A      0.851399    35A      0.913488  
      36A      0.970674    37A      1.053400    38A      1.108778  
      39A      1.154082    40A      1.176736    41A      1.181244  
      42A      1.199890    43A      1.279744    44A      1.298552  
      45A      1.302203    46A      1.331058    47A      1.382817  
      48A      1.441021    49A      1.496919    50A      1.577843  
      51A      1.732816    52A      1.984676    53A      1.994549  
      54A      2.063286    55A      2.080017    56A      2.348874  
      57A      2.378536    58A      2.379926    59A      2.400713  
      60A      2.443349    61A      2.452352    62A      2.592829  
      63A      2.715652    64A      2.934712    65A      2.988027  
      66A      3.424638    67A      3.676348    68A      3.704314  
      69A      3.734307    70A      3.950834    71A      3.968104  
      72A      4.048489    73A      4.288537    74A      4.913445  
      75A      4.936822    76A      5.061833    77A      5.324227  
      78A      5.358868    79A      5.596047    80A      6.369606  
      81A      6.807795    82A     33.528325  

    Final Occupation by Irrep:
              A 
    DOCC [     5 ]

  @DF-RHF Final Energy:   -76.03574867838590

   => Energetics <=

    Nuclear Repulsion Energy =              8.8014203545751499
    One-Electron Energy =                -122.2747443799015628
    Two-Electron Energy =                  37.4375753469405055
    Total Energy =                        -76.0357486783859002

Computation Completed


Properties will be evaluated at   0.000000,   0.000000,   0.000000 [a0]

Properties computed using the SCF density matrix


 Multipole Moments:

 ------------------------------------------------------------------------------------
     Multipole            Electronic (a.u.)      Nuclear  (a.u.)        Total (a.u.)
 ------------------------------------------------------------------------------------

 L = 1.  Multiply by 2.5417464519 to convert [e a0] to [Debye]
 Dipole X            :         -0.0000626            0.0000000           -0.0000626
 Dipole Y            :         -0.6855394            1.3175347            0.6319953
 Dipole Z            :         28.3437520          -27.8548364            0.4889156
 Magnitude           :                                                    0.7990348

 ------------------------------------------------------------------------------------

*** tstop() called on Lenovo-Y540-Zoha at Tue Sep 27 18:43:03 2022
Module time:
	user time   =        nan seconds =        nan minutes
	system time =        nan seconds =        nan minutes
	total time  =          1 seconds =       0.02 minutes
Total time:
	user time   =        nan seconds =        nan minutes
	system time =        nan seconds =        nan minutes
	total time  =       1002 seconds =      16.70 minutes

    Psi4 stopped on: Tuesday, 27 September 2022 06:43PM
    Psi4 wall time for execution: 0:00:00.97


    -----------------------------------------------------------------------
          Psi4: An Open-Source Ab Initio Electronic Structure Package
                               Psi4 1.6.1 release

                         Git: Rev {HEAD} 5b9f6e3 


    D. G. A. Smith, L. A. Burns, A. C. Simmonett, R. M. Parrish,
    M. C. Schieber, R. Galvelis, P. Kraus, H. Kruse, R. Di Remigio,
    A. Alenaizan, A. M. James, S. Lehtola, J. P. Misiewicz, M. Scheurer,
    R. A. Shaw, J. B. Schriber, Y. Xie, Z. L. Glick, D. A. Sirianni,
    J. S. O'Brien, J. M. Waldrop, A. Kumar, E. G. Hohenstein,
    B. P. Pritchard, B. R. Brooks, H. F. Schaefer III, A. Yu. Sokolov,
    K. Patkowski, A. E. DePrince III, U. Bozkaya, R. A. King,
    F. A. Evangelista, J. M. Turney, T. D. Crawford, C. D. Sherrill,
    J. Chem. Phys. 152(18) 184108 (2020). https://doi.org/10.1063/5.0006002

                            Additional Code Authors
    E. T. Seidl, C. L. Janssen, E. F. Valeev, M. L. Leininger,
    J. F. Gonthier, R. M. Richard, H. R. McAlexander, M. Saitow, X. Wang,
    P. Verma, M. H. Lechner, and A. Jiang

             Previous Authors, Complete List of Code Contributors,
                       and Citations for Specific Modules
    https://github.com/psi4/psi4/blob/master/codemeta.json
    https://github.com/psi4/psi4/graphs/contributors
    http://psicode.org/psi4manual/master/introduction.html#citing-psifour

    -----------------------------------------------------------------------


    Psi4 started on: Tuesday, 27 September 2022 06:25PM

    Process ID: 10544
    Host:       Lenovo-Y540-Zoha
    PSIDATADIR: C:\Users\64292\Anaconda3\envs\qm-tools\lib\share\psi4
    Memory:     476.8 MiB
    Threads:    1
    
  ==> Input QCSchema <==

--------------------------------------------------------------------------
{'driver': 'energy',
 'extras': {'psiapi': True, 'wfn_qcvars_only': True},
 'id': None,
 'keywords': {'function_kwargs': {}},
 'model': {'basis': 'aug-cc-pvdz', 'method': 'scf'},
 'molecule': {'atom_labels': ['1', '2', '3', '5', '6', '7'],
              'atomic_numbers': [8, 1, 1, 8, 1, 1],
              'fix_com': True,
              'fix_orientation': True,
              'fragment_charges': [0.0, 0.0],
              'fragment_multiplicities': [1, 1],
              'fragments': [[0, 1, 2], [3, 4, 5]],
              'geometry': [3.6985726236876735e-17, -0.05118338925575477, -2.927077430585559, 3.6985726236876735e-17,
                           -0.05118338925575477, -1.0373513051277308, 3.6985726236876735e-17, 1.7781852282291912,
                           -3.4008656645034905, 3.6985726236876735e-17, -0.05118338925575477, 2.742100945787925,
                           1.5807867135447509, -0.4747539125559204, 3.6869640085168394, -1.5807867135447522,
                           0.3723871340444095, 3.6869640085168385],
              'mass_numbers': [16, 1, 1, 16, 1, 1],
              'masses': [15.99491461957, 1.00782503223, 1.00782503223, 15.99491461957, 1.00782503223, 1.00782503223],
              'molecular_charge': 0.0,
              'molecular_multiplicity': 1,
              'name': 'H4O2',
              'provenance': {'creator': 'QCElemental',
                             'routine': 'qcelemental.molparse.from_string',
                             'version': 'v0.25.0'},
              'real': [True, True, True, True, True, True],
              'schema_name': 'qcschema_molecule',
              'schema_version': 2,
              'symbols': ['O', 'H', 'H', 'O', 'H', 'H'],
              'validated': True},
 'protocols': {'stdout': True},
 'provenance': {'creator': 'QCElemental', 'routine': 'qcelemental.models.results', 'version': 'v0.25.0'},
 'schema_name': 'qcschema_input',
 'schema_version': 1}
--------------------------------------------------------------------------

Scratch directory: C:\Users\64292\AppData\Local\Temp/

*** tstart() called on Lenovo-Y540-Zoha
*** at Tue Sep 27 18:43:03 2022

   => Loading Basis Set <=

    Name: AUG-CC-PVDZ
    Role: ORBITAL
    Keyword: BASIS
    atoms 1, 4     entry O          line   254 file C:\Users\64292\Anaconda3\envs\qm-tools\lib\share\psi4\basis\aug-cc-pvdz.gbs 
    atoms 2-3, 5-6 entry H          line    40 file C:\Users\64292\Anaconda3\envs\qm-tools\lib\share\psi4\basis\aug-cc-pvdz.gbs 


         ---------------------------------------------------------
                                   SCF
               by Justin Turney, Rob Parrish, Andy Simmonett
                          and Daniel G. A. Smith
                              RHF Reference
                        1 Threads,    476 MiB Core
         ---------------------------------------------------------

  ==> Geometry <==

    Molecular point group: c1
    Full point group: C1

    Geometry (in Bohr), charge = 0, multiplicity = 1:

       Center              X                  Y                   Z               Mass       
    ------------   -----------------  -----------------  -----------------  -----------------
         O            0.000000000000    -0.051183389256    -2.927077430586    15.994914619570
         H            0.000000000000    -0.051183389256    -1.037351305128     1.007825032230
         H            0.000000000000     1.778185228229    -3.400865664503     1.007825032230
         O            0.000000000000    -0.051183389256     2.742100945788    15.994914619570
         H            1.580786713545    -0.474753912556     3.686964008517     1.007825032230
         H           -1.580786713545     0.372387134044     3.686964008517     1.007825032230

  Running in c1 symmetry.

  Rotational constants: A =      7.04653  B =      0.20046  C =      0.19841 [cm^-1]
  Rotational constants: A = 211249.53411  B =   6009.71922  C =   5948.26692 [MHz]
  Nuclear repulsion =   35.242743640571675

  Charge       = 0
  Multiplicity = 1
  Electrons    = 20
  Nalpha       = 10
  Nbeta        = 10

  ==> Algorithm <==

  SCF Algorithm Type is DF.
  DIIS enabled.
  MOM disabled.
  Fractional occupation disabled.
  Guess Type is SAD.
  Energy threshold   = 1.00e-06
  Density threshold  = 1.00e-06
  Integral threshold = 1.00e-12

  ==> Primary Basis <==

  Basis Set: AUG-CC-PVDZ
    Blend: AUG-CC-PVDZ
    Number of shells: 38
    Number of basis functions: 82
    Number of Cartesian functions: 86
    Spherical Harmonics?: true
    Max angular momentum: 2

   => Loading Basis Set <=

    Name: (AUG-CC-PVDZ AUX)
    Role: JKFIT
    Keyword: DF_BASIS_SCF
    atoms 1, 4     entry O          line   270 file C:\Users\64292\Anaconda3\envs\qm-tools\lib\share\psi4\basis\aug-cc-pvdz-jkfit.gbs 
    atoms 2-3, 5-6 entry H          line    70 file C:\Users\64292\Anaconda3\envs\qm-tools\lib\share\psi4\basis\aug-cc-pvdz-jkfit.gbs 

  ==> Integral Setup <==

  DFHelper Memory: AOs need 0.017 GiB; user supplied 0.349 GiB. Using in-core AOs.

  ==> MemDFJK: Density-Fitted J/K Matrices <==

    J tasked:                   Yes
    K tasked:                   Yes
    wK tasked:                   No
    OpenMP threads:               1
    Memory [MiB]:               357
    Algorithm:                 Core
    Schwarz Cutoff:           1E-12
    Mask sparsity (%):       0.0000
    Fitting Condition:        1E-10

   => Auxiliary Basis Set <=

  Basis Set: (AUG-CC-PVDZ AUX)
    Blend: AUG-CC-PVDZ-JKFIT
    Number of shells: 104
    Number of basis functions: 300
    Number of Cartesian functions: 342
    Spherical Harmonics?: true
    Max angular momentum: 3

  Minimum eigenvalue in the overlap matrix is 2.0718004747E-03.
  Reciprocal condition number of the overlap matrix is 2.8262704323E-04.
    Using symmetric orthogonalization.

  ==> Pre-Iterations <==

  SCF Guess: Superposition of Atomic Densities via on-the-fly atomic UHF (no occupation information).

   -------------------------
    Irrep   Nso     Nmo    
   -------------------------
     A         82      82 
   -------------------------
    Total      82      82
   -------------------------

  ==> Iterations <==

                           Total Energy        Delta E     RMS |[F,P]|

   @DF-RHF iter SAD:  -150.88706670496262   -1.50887e+02   0.00000e+00 
   @DF-RHF iter   1:  -151.91330645153380   -1.02624e+00   7.51506e-03 DIIS/ADIIS
   @DF-RHF iter   2:  -152.01333979696156   -1.00033e-01   4.93933e-03 DIIS/ADIIS
   @DF-RHF iter   3:  -152.07106547835809   -5.77257e-02   4.12543e-04 DIIS/ADIIS
   @DF-RHF iter   4:  -152.07203491375583   -9.69435e-04   9.10159e-05 DIIS
   @DF-RHF iter   5:  -152.07209104511745   -5.61314e-05   3.01423e-05 DIIS
   @DF-RHF iter   6:  -152.07209673284146   -5.68772e-06   1.31160e-05 DIIS
   @DF-RHF iter   7:  -152.07209766261963   -9.29778e-07   2.53058e-06 DIIS
   @DF-RHF iter   8:  -152.07209773056422   -6.79446e-08   4.64861e-07 DIIS
  Energy and wave function converged.


  ==> Post-Iterations <==

    Orbital Energies [Eh]
    ---------------------

    Doubly Occupied:                                                      

       1A    -20.601109     2A    -20.549787     3A     -1.353636  
       4A     -1.303897     5A     -0.746953     6A     -0.671979  
       7A     -0.583962     8A     -0.539383     9A     -0.527404  
      10A     -0.474646  

    Virtual:                                                              

      11A      0.025658    12A      0.050849    13A      0.056925  
      14A      0.088472    15A      0.174602    16A      0.182602  
      17A      0.204031    18A      0.211912    19A      0.223459  
      20A      0.237206    21A      0.247054    22A      0.283945  
      23A      0.303114    24A      0.312078    25A      0.346086  
      26A      0.358609    27A      0.401550    28A      0.425761  
      29A      0.449102    30A      0.497860    31A      0.514356  
      32A      0.532518    33A      0.543652    34A      0.594328  
      35A      0.629257    36A      0.644568    37A      0.668941  
      38A      0.777226    39A      0.833663    40A      0.861177  
      41A      0.932048    42A      0.995715    43A      1.118569  
      44A      1.122731    45A      1.138526    46A      1.184898  
      47A      1.206599    48A      1.220042    49A      1.357264  
      50A      1.425376    51A      1.464547    52A      1.504185  
      53A      1.532697    54A      1.612089    55A      1.632621  
      56A      1.936679    57A      1.982390    58A      2.017143  
      59A      2.029706    60A      2.038259    61A      2.046613  
      62A      2.147712    63A      2.364308    64A      2.407388  
      65A      2.440422    66A      2.490689    67A      2.516558  
      68A      2.722258    69A      2.777065    70A      2.786891  
      71A      2.979373    72A      3.023465    73A      3.674526  
      74A      3.686237    75A      3.706586    76A      3.741072  
      77A      3.769115    78A      3.803150    79A      4.086091  
      80A      4.123250    81A      4.166624    82A      4.355452  

    Final Occupation by Irrep:
              A 
    DOCC [    10 ]

  @DF-RHF Final Energy:  -152.07209773056422

   => Energetics <=

    Nuclear Repulsion Energy =             35.2427436405716747
    One-Electron Energy =                -279.9241512650667119
    Two-Electron Energy =                  92.6093098939307993
    Total Energy =                       -152.0720977305642236

Computation Completed


Properties will be evaluated at   0.000000,   0.000000,   0.000000 [a0]

Properties computed using the SCF density matrix


 Multipole Moments:

 ------------------------------------------------------------------------------------
     Multipole            Electronic (a.u.)      Nuclear  (a.u.)        Total (a.u.)
 ------------------------------------------------------------------------------------

 L = 1.  Multiply by 2.5417464519 to convert [e a0] to [Debye]
 Dipole X            :          0.0007396           -0.0000000            0.0007396
 Dipole Y            :         -0.1982804            0.8057008            0.6074204
 Dipole Z            :         -0.0426934            1.4558992            1.4132057
 Magnitude           :                                                    1.5382167

 ------------------------------------------------------------------------------------

*** tstop() called on Lenovo-Y540-Zoha at Tue Sep 27 18:43:04 2022
Module time:
	user time   =        nan seconds =        nan minutes
	system time =        nan seconds =        nan minutes
	total time  =          1 seconds =       0.02 minutes
Total time:
	user time   =        nan seconds =        nan minutes
	system time =        nan seconds =        nan minutes
	total time  =       1003 seconds =      16.72 minutes

    Psi4 stopped on: Tuesday, 27 September 2022 06:43PM
    Psi4 wall time for execution: 0:00:01.02


  //>>>>>>>>>>>>>>>>>>>>>>>>>>>>>>>>>>>//
  //          ManyBody Results         //
  //<<<<<<<<<<<<<<<<<<<<<<<<<<<<<<<<<<<//


   ==> N-Body: Counterpoise Corrected (CP) energies <==

        n-Body     Total Energy            Interaction Energy                          N-body Contribution to Interaction Energy
                   [Eh]                    [Eh]                  [kcal/mol]            [Eh]                  [kcal/mol]
             1  N/A                         0.000000000000        0.000000000000        0.000000000000        0.000000000000
  FULL/RTN   2  N/A                        -0.006399709483       -4.015878329841       -0.006399709483       -4.015878329841

