
Scratch directory: C:\Users\64292\AppData\Local\Temp/

  //>>>>>>>>>>>>>>>>>>>>>>>>>>>>>>>>>>>>>//
  // ManyBody Setup: N-Body Levels [1, 2]//
  //<<<<<<<<<<<<<<<<<<<<<<<<<<<<<<<<<<<<<//

        Number of 1-body computations:     2
        Number of 2-body computations:     1

    -----------------------------------------------------------------------
          Psi4: An Open-Source Ab Initio Electronic Structure Package
                               Psi4 1.6.1 release

                         Git: Rev {HEAD} 5b9f6e3 


    D. G. A. Smith, L. A. Burns, A. C. Simmonett, R. M. Parrish,
    M. C. Schieber, R. Galvelis, P. Kraus, H. Kruse, R. Di Remigio,
    A. Alenaizan, A. M. James, S. Lehtola, J. P. Misiewicz, M. Scheurer,
    R. A. Shaw, J. B. Schriber, Y. Xie, Z. L. Glick, D. A. Sirianni,
    J. S. O'Brien, J. M. Waldrop, A. Kumar, E. G. Hohenstein,
    B. P. Pritchard, B. R. Brooks, H. F. Schaefer III, A. Yu. Sokolov,
    K. Patkowski, A. E. DePrince III, U. Bozkaya, R. A. King,
    F. A. Evangelista, J. M. Turney, T. D. Crawford, C. D. Sherrill,
    J. Chem. Phys. 152(18) 184108 (2020). https://doi.org/10.1063/5.0006002

                            Additional Code Authors
    E. T. Seidl, C. L. Janssen, E. F. Valeev, M. L. Leininger,
    J. F. Gonthier, R. M. Richard, H. R. McAlexander, M. Saitow, X. Wang,
    P. Verma, M. H. Lechner, and A. Jiang

             Previous Authors, Complete List of Code Contributors,
                       and Citations for Specific Modules
    https://github.com/psi4/psi4/blob/master/codemeta.json
    https://github.com/psi4/psi4/graphs/contributors
    http://psicode.org/psi4manual/master/introduction.html#citing-psifour

    -----------------------------------------------------------------------


    Psi4 started on: Tuesday, 27 September 2022 06:25PM

    Process ID: 10544
    Host:       Lenovo-Y540-Zoha
    PSIDATADIR: C:\Users\64292\Anaconda3\envs\qm-tools\lib\share\psi4
    Memory:     476.8 MiB
    Threads:    1
    
  ==> Input QCSchema <==

--------------------------------------------------------------------------
{'driver': 'energy',
 'extras': {'psiapi': True, 'wfn_qcvars_only': True},
 'id': None,
 'keywords': {'function_kwargs': {}},
 'model': {'basis': 'aug-cc-pvdz', 'method': 'scf'},
 'molecule': {'atom_labels': ['1', '2', '3', '5', '6', '7'],
              'atomic_numbers': [8, 1, 1, 8, 1, 1],
              'fix_com': True,
              'fix_orientation': True,
              'fragment_charges': [0.0, 0.0],
              'fragment_multiplicities': [1, 1],
              'fragments': [[0, 1, 2], [3, 4, 5]],
              'geometry': [0.05118338925575475, 3.2105363494042334, 0.0, 0.05118338925575475, 1.320810223946406, 0.0,
                           -1.7781852282291912, 3.684324583322165, 0.0, 0.05118338925575475, -3.0255598646065995, 0.0,
                           1.6877342200973742, -3.970422927335511, 0.0, -1.5853674415858627, -3.970422927335512, 0.0],
              'mass_numbers': [16, 1, 1, 16, 1, 1],
              'masses': [15.99491461957, 1.00782503223, 1.00782503223, 15.99491461957, 1.00782503223, 1.00782503223],
              'molecular_charge': 0.0,
              'molecular_multiplicity': 1,
              'name': 'H4O2',
              'provenance': {'creator': 'QCElemental',
                             'routine': 'qcelemental.molparse.from_string',
                             'version': 'v0.25.0'},
              'real': [False, False, False, True, True, True],
              'schema_name': 'qcschema_molecule',
              'schema_version': 2,
              'symbols': ['O', 'H', 'H', 'O', 'H', 'H'],
              'validated': True},
 'protocols': {'stdout': True},
 'provenance': {'creator': 'QCElemental', 'routine': 'qcelemental.models.results', 'version': 'v0.25.0'},
 'schema_name': 'qcschema_input',
 'schema_version': 1}
--------------------------------------------------------------------------

Scratch directory: C:\Users\64292\AppData\Local\Temp/

*** tstart() called on Lenovo-Y540-Zoha
*** at Tue Sep 27 18:47:11 2022

   => Loading Basis Set <=

    Name: AUG-CC-PVDZ
    Role: ORBITAL
    Keyword: BASIS
    atoms 1, 4     entry O          line   254 file C:\Users\64292\Anaconda3\envs\qm-tools\lib\share\psi4\basis\aug-cc-pvdz.gbs 
    atoms 2-3, 5-6 entry H          line    40 file C:\Users\64292\Anaconda3\envs\qm-tools\lib\share\psi4\basis\aug-cc-pvdz.gbs 


         ---------------------------------------------------------
                                   SCF
               by Justin Turney, Rob Parrish, Andy Simmonett
                          and Daniel G. A. Smith
                              RHF Reference
                        1 Threads,    476 MiB Core
         ---------------------------------------------------------

  ==> Geometry <==

    Molecular point group: cs
    Full point group: Cs

    Geometry (in Bohr), charge = 0, multiplicity = 1:

       Center              X                  Y                   Z               Mass       
    ------------   -----------------  -----------------  -----------------  -----------------
      Gh(O)           0.051183389256     3.210536349404     0.000000000000    15.994914619570
      Gh(H)           0.051183389256     1.320810223946     0.000000000000     1.007825032230
      Gh(H)          -1.778185228229     3.684324583322     0.000000000000     1.007825032230
         O            0.051183389256    -3.025559864607     0.000000000000    15.994914619570
         H            1.687734220097    -3.970422927336     0.000000000000     1.007825032230
         H           -1.585367441586    -3.970422927336     0.000000000000     1.007825032230

  Running in cs symmetry.

  Rotational constants: A =      7.04496  B =      0.16786  C =      0.16395 [cm^-1]
  Rotational constants: A = 211202.51010  B =   5032.29745  C =   4915.18394 [MHz]
  Nuclear repulsion =    8.772355975749345

  Charge       = 0
  Multiplicity = 1
  Electrons    = 10
  Nalpha       = 5
  Nbeta        = 5

  ==> Algorithm <==

  SCF Algorithm Type is DF.
  DIIS enabled.
  MOM disabled.
  Fractional occupation disabled.
  Guess Type is SAD.
  Energy threshold   = 1.00e-06
  Density threshold  = 1.00e-06
  Integral threshold = 1.00e-12

  ==> Primary Basis <==

  Basis Set: AUG-CC-PVDZ
    Blend: AUG-CC-PVDZ
    Number of shells: 38
    Number of basis functions: 82
    Number of Cartesian functions: 86
    Spherical Harmonics?: true
    Max angular momentum: 2

   => Loading Basis Set <=

    Name: (AUG-CC-PVDZ AUX)
    Role: JKFIT
    Keyword: DF_BASIS_SCF
    atoms 1, 4     entry O          line   270 file C:\Users\64292\Anaconda3\envs\qm-tools\lib\share\psi4\basis\aug-cc-pvdz-jkfit.gbs 
    atoms 2-3, 5-6 entry H          line    70 file C:\Users\64292\Anaconda3\envs\qm-tools\lib\share\psi4\basis\aug-cc-pvdz-jkfit.gbs 

  ==> Integral Setup <==

  DFHelper Memory: AOs need 0.017 GiB; user supplied 0.349 GiB. Using in-core AOs.

  ==> MemDFJK: Density-Fitted J/K Matrices <==

    J tasked:                   Yes
    K tasked:                   Yes
    wK tasked:                   No
    OpenMP threads:               1
    Memory [MiB]:               357
    Algorithm:                 Core
    Schwarz Cutoff:           1E-12
    Mask sparsity (%):       0.0000
    Fitting Condition:        1E-10

   => Auxiliary Basis Set <=

  Basis Set: (AUG-CC-PVDZ AUX)
    Blend: AUG-CC-PVDZ-JKFIT
    Number of shells: 104
    Number of basis functions: 300
    Number of Cartesian functions: 342
    Spherical Harmonics?: true
    Max angular momentum: 3

  Minimum eigenvalue in the overlap matrix is 2.0891890094E-03.
  Reciprocal condition number of the overlap matrix is 3.0028144484E-04.
    Using symmetric orthogonalization.

  ==> Pre-Iterations <==

  SCF Guess: Superposition of Atomic Densities via on-the-fly atomic UHF (no occupation information).

   -------------------------
    Irrep   Nso     Nmo    
   -------------------------
     A'        60      60 
     A"        22      22 
   -------------------------
    Total      82      82
   -------------------------

  ==> Iterations <==

                           Total Energy        Delta E     RMS |[F,P]|

   @DF-RHF iter SAD:   -75.40236286702417   -7.54024e+01   0.00000e+00 
   @DF-RHF iter   1:   -75.94508353640032   -5.42721e-01   7.06714e-03 DIIS/ADIIS
   @DF-RHF iter   2:   -75.99626173408180   -5.11782e-02   4.78507e-03 DIIS/ADIIS
   @DF-RHF iter   3:   -76.02934176838595   -3.30800e-02   3.65487e-04 DIIS/ADIIS
   @DF-RHF iter   4:   -76.02982067379213   -4.78905e-04   8.55402e-05 DIIS
   @DF-RHF iter   5:   -76.02985324383187   -3.25700e-05   2.09200e-05 DIIS
   @DF-RHF iter   6:   -76.02985632227437   -3.07844e-06   4.48262e-06 DIIS
   @DF-RHF iter   7:   -76.02985647689567   -1.54621e-07   8.22095e-07 DIIS
  Energy and wave function converged.


  ==> Post-Iterations <==

    Orbital Energies [Eh]
    ---------------------

    Doubly Occupied:                                                      

       1Ap   -20.575758     2Ap    -1.325848     3Ap    -0.721206  
       4Ap    -0.548254     1App   -0.500713  

    Virtual:                                                              

       5Ap     0.032709     6Ap     0.052292     7Ap     0.055944  
       8Ap     0.084961     2App    0.156801     9Ap     0.170842  
      10Ap     0.181382    11Ap     0.197780    12Ap     0.217615  
       3App    0.218451    13Ap     0.239542    14Ap     0.249858  
      15Ap     0.306846    16Ap     0.329057     4App    0.373324  
      17Ap     0.404563     5App    0.442891     6App    0.453946  
      18Ap     0.453952    19Ap     0.475338    20Ap     0.512411  
       7App    0.529370    21Ap     0.542210    22Ap     0.567454  
      23Ap     0.616543    24Ap     0.637492    25Ap     0.661137  
      26Ap     0.713611    27Ap     0.872223    28Ap     0.883622  
       8App    0.922271    29Ap     0.927189     9App    1.097307  
      30Ap     1.139515    10App    1.146336    31Ap     1.207707  
      32Ap     1.237043    33Ap     1.286174    11App    1.335105  
      34Ap     1.358082    12App    1.397297    35Ap     1.416091  
      36Ap     1.450869    13App    1.522928    37Ap     1.569701  
      38Ap     1.866310    39Ap     1.990465    14App    2.045235  
      40Ap     2.049087    15App    2.054038    41Ap     2.281030  
      16App    2.369563    42Ap     2.416660    43Ap     2.436612  
      17App    2.459976    44Ap     2.526368    45Ap     2.570398  
      46Ap     2.677985    47Ap     2.814508    48Ap     2.912169  
      49Ap     3.420680    18App    3.677157    19App    3.700833  
      50Ap     3.790415    51Ap     3.909394    52Ap     4.074070  
      53Ap     4.142603    54Ap     4.183887    20App    4.908659  
      55Ap     4.954996    21App    4.988176    56Ap     5.175283  
      57Ap     5.481732    22App    5.630788    58Ap     6.399805  
      59Ap     6.837964    60Ap    33.566417  

    Final Occupation by Irrep:
             Ap   App 
    DOCC [     4,    1 ]

  @DF-RHF Final Energy:   -76.02985647689567

   => Energetics <=

    Nuclear Repulsion Energy =              8.7723559757493454
    One-Electron Energy =                -122.2608301840340062
    Two-Electron Energy =                  37.4586177313889834
    Total Energy =                        -76.0298564768956737

Computation Completed


Properties will be evaluated at   0.000000,   0.000000,   0.000000 [a0]

Properties computed using the SCF density matrix


 Multipole Moments:

 ------------------------------------------------------------------------------------
     Multipole            Electronic (a.u.)      Nuclear  (a.u.)        Total (a.u.)
 ------------------------------------------------------------------------------------

 L = 1.  Multiply by 2.5417464519 to convert [e a0] to [Debye]
 Dipole X            :         -0.5116990            0.5118339            0.0001349
 Dipole Y            :         31.4585124          -32.1453248           -0.6868123
 Dipole Z            :          0.0000000            0.0000000            0.0000000
 Magnitude           :                                                    0.6868124

 ------------------------------------------------------------------------------------

*** tstop() called on Lenovo-Y540-Zoha at Tue Sep 27 18:47:12 2022
Module time:
	user time   =        nan seconds =        nan minutes
	system time =        nan seconds =        nan minutes
	total time  =          1 seconds =       0.02 minutes
Total time:
	user time   =        nan seconds =        nan minutes
	system time =        nan seconds =        nan minutes
	total time  =       1251 seconds =      20.85 minutes

    Psi4 stopped on: Tuesday, 27 September 2022 06:47PM
    Psi4 wall time for execution: 0:00:01.10


    -----------------------------------------------------------------------
          Psi4: An Open-Source Ab Initio Electronic Structure Package
                               Psi4 1.6.1 release

                         Git: Rev {HEAD} 5b9f6e3 


    D. G. A. Smith, L. A. Burns, A. C. Simmonett, R. M. Parrish,
    M. C. Schieber, R. Galvelis, P. Kraus, H. Kruse, R. Di Remigio,
    A. Alenaizan, A. M. James, S. Lehtola, J. P. Misiewicz, M. Scheurer,
    R. A. Shaw, J. B. Schriber, Y. Xie, Z. L. Glick, D. A. Sirianni,
    J. S. O'Brien, J. M. Waldrop, A. Kumar, E. G. Hohenstein,
    B. P. Pritchard, B. R. Brooks, H. F. Schaefer III, A. Yu. Sokolov,
    K. Patkowski, A. E. DePrince III, U. Bozkaya, R. A. King,
    F. A. Evangelista, J. M. Turney, T. D. Crawford, C. D. Sherrill,
    J. Chem. Phys. 152(18) 184108 (2020). https://doi.org/10.1063/5.0006002

                            Additional Code Authors
    E. T. Seidl, C. L. Janssen, E. F. Valeev, M. L. Leininger,
    J. F. Gonthier, R. M. Richard, H. R. McAlexander, M. Saitow, X. Wang,
    P. Verma, M. H. Lechner, and A. Jiang

             Previous Authors, Complete List of Code Contributors,
                       and Citations for Specific Modules
    https://github.com/psi4/psi4/blob/master/codemeta.json
    https://github.com/psi4/psi4/graphs/contributors
    http://psicode.org/psi4manual/master/introduction.html#citing-psifour

    -----------------------------------------------------------------------


    Psi4 started on: Tuesday, 27 September 2022 06:25PM

    Process ID: 10544
    Host:       Lenovo-Y540-Zoha
    PSIDATADIR: C:\Users\64292\Anaconda3\envs\qm-tools\lib\share\psi4
    Memory:     476.8 MiB
    Threads:    1
    
  ==> Input QCSchema <==

--------------------------------------------------------------------------
{'driver': 'energy',
 'extras': {'psiapi': True, 'wfn_qcvars_only': True},
 'id': None,
 'keywords': {'function_kwargs': {}},
 'model': {'basis': 'aug-cc-pvdz', 'method': 'scf'},
 'molecule': {'atom_labels': ['1', '2', '3', '5', '6', '7'],
              'atomic_numbers': [8, 1, 1, 8, 1, 1],
              'fix_com': True,
              'fix_orientation': True,
              'fragment_charges': [0.0, 0.0],
              'fragment_multiplicities': [1, 1],
              'fragments': [[0, 1, 2], [3, 4, 5]],
              'geometry': [0.05118338925575475, 3.2105363494042334, 0.0, 0.05118338925575475, 1.320810223946406, 0.0,
                           -1.7781852282291912, 3.684324583322165, 0.0, 0.05118338925575475, -3.0255598646065995, 0.0,
                           1.6877342200973742, -3.970422927335511, 0.0, -1.5853674415858627, -3.970422927335512, 0.0],
              'mass_numbers': [16, 1, 1, 16, 1, 1],
              'masses': [15.99491461957, 1.00782503223, 1.00782503223, 15.99491461957, 1.00782503223, 1.00782503223],
              'molecular_charge': 0.0,
              'molecular_multiplicity': 1,
              'name': 'H4O2',
              'provenance': {'creator': 'QCElemental',
                             'routine': 'qcelemental.molparse.from_string',
                             'version': 'v0.25.0'},
              'real': [True, True, True, False, False, False],
              'schema_name': 'qcschema_molecule',
              'schema_version': 2,
              'symbols': ['O', 'H', 'H', 'O', 'H', 'H'],
              'validated': True},
 'protocols': {'stdout': True},
 'provenance': {'creator': 'QCElemental', 'routine': 'qcelemental.models.results', 'version': 'v0.25.0'},
 'schema_name': 'qcschema_input',
 'schema_version': 1}
--------------------------------------------------------------------------

Scratch directory: C:\Users\64292\AppData\Local\Temp/

*** tstart() called on Lenovo-Y540-Zoha
*** at Tue Sep 27 18:47:12 2022

   => Loading Basis Set <=

    Name: AUG-CC-PVDZ
    Role: ORBITAL
    Keyword: BASIS
    atoms 1, 4     entry O          line   254 file C:\Users\64292\Anaconda3\envs\qm-tools\lib\share\psi4\basis\aug-cc-pvdz.gbs 
    atoms 2-3, 5-6 entry H          line    40 file C:\Users\64292\Anaconda3\envs\qm-tools\lib\share\psi4\basis\aug-cc-pvdz.gbs 


         ---------------------------------------------------------
                                   SCF
               by Justin Turney, Rob Parrish, Andy Simmonett
                          and Daniel G. A. Smith
                              RHF Reference
                        1 Threads,    476 MiB Core
         ---------------------------------------------------------

  ==> Geometry <==

    Molecular point group: cs
    Full point group: Cs

    Geometry (in Bohr), charge = 0, multiplicity = 1:

       Center              X                  Y                   Z               Mass       
    ------------   -----------------  -----------------  -----------------  -----------------
         O            0.051183389256     3.210536349404     0.000000000000    15.994914619570
         H            0.051183389256     1.320810223946     0.000000000000     1.007825032230
         H           -1.778185228229     3.684324583322     0.000000000000     1.007825032230
      Gh(O)           0.051183389256    -3.025559864607     0.000000000000    15.994914619570
      Gh(H)           1.687734220097    -3.970422927336     0.000000000000     1.007825032230
      Gh(H)          -1.585367441586    -3.970422927336     0.000000000000     1.007825032230

  Running in cs symmetry.

  Rotational constants: A =      7.04496  B =      0.16786  C =      0.16395 [cm^-1]
  Rotational constants: A = 211202.51010  B =   5032.29745  C =   4915.18394 [MHz]
  Nuclear repulsion =    8.801420354575152

  Charge       = 0
  Multiplicity = 1
  Electrons    = 10
  Nalpha       = 5
  Nbeta        = 5

  ==> Algorithm <==

  SCF Algorithm Type is DF.
  DIIS enabled.
  MOM disabled.
  Fractional occupation disabled.
  Guess Type is SAD.
  Energy threshold   = 1.00e-06
  Density threshold  = 1.00e-06
  Integral threshold = 1.00e-12

  ==> Primary Basis <==

  Basis Set: AUG-CC-PVDZ
    Blend: AUG-CC-PVDZ
    Number of shells: 38
    Number of basis functions: 82
    Number of Cartesian functions: 86
    Spherical Harmonics?: true
    Max angular momentum: 2

   => Loading Basis Set <=

    Name: (AUG-CC-PVDZ AUX)
    Role: JKFIT
    Keyword: DF_BASIS_SCF
    atoms 1, 4     entry O          line   270 file C:\Users\64292\Anaconda3\envs\qm-tools\lib\share\psi4\basis\aug-cc-pvdz-jkfit.gbs 
    atoms 2-3, 5-6 entry H          line    70 file C:\Users\64292\Anaconda3\envs\qm-tools\lib\share\psi4\basis\aug-cc-pvdz-jkfit.gbs 

  ==> Integral Setup <==

  DFHelper Memory: AOs need 0.017 GiB; user supplied 0.349 GiB. Using in-core AOs.

  ==> MemDFJK: Density-Fitted J/K Matrices <==

    J tasked:                   Yes
    K tasked:                   Yes
    wK tasked:                   No
    OpenMP threads:               1
    Memory [MiB]:               357
    Algorithm:                 Core
    Schwarz Cutoff:           1E-12
    Mask sparsity (%):       0.0000
    Fitting Condition:        1E-10

   => Auxiliary Basis Set <=

  Basis Set: (AUG-CC-PVDZ AUX)
    Blend: AUG-CC-PVDZ-JKFIT
    Number of shells: 104
    Number of basis functions: 300
    Number of Cartesian functions: 342
    Spherical Harmonics?: true
    Max angular momentum: 3

  Minimum eigenvalue in the overlap matrix is 2.0891890094E-03.
  Reciprocal condition number of the overlap matrix is 3.0028144484E-04.
    Using symmetric orthogonalization.

  ==> Pre-Iterations <==

  SCF Guess: Superposition of Atomic Densities via on-the-fly atomic UHF (no occupation information).

   -------------------------
    Irrep   Nso     Nmo    
   -------------------------
     A'        60      60 
     A"        22      22 
   -------------------------
    Total      82      82
   -------------------------

  ==> Iterations <==

                           Total Energy        Delta E     RMS |[F,P]|

   @DF-RHF iter SAD:   -75.41487089975197   -7.54149e+01   0.00000e+00 
   @DF-RHF iter   1:   -75.94941106566766   -5.34540e-01   7.06382e-03 DIIS/ADIIS
   @DF-RHF iter   2:   -76.00128720115758   -5.18761e-02   4.84278e-03 DIIS/ADIIS
   @DF-RHF iter   3:   -76.03522992604184   -3.39427e-02   3.67630e-04 DIIS/ADIIS
   @DF-RHF iter   4:   -76.03569118741190   -4.61261e-04   8.46345e-05 DIIS
   @DF-RHF iter   5:   -76.03572132879616   -3.01414e-05   2.00732e-05 DIIS
   @DF-RHF iter   6:   -76.03572390501783   -2.57622e-06   3.96482e-06 DIIS
   @DF-RHF iter   7:   -76.03572400826850   -1.03251e-07   6.46264e-07 DIIS
  Energy and wave function converged.


  ==> Post-Iterations <==

    Orbital Energies [Eh]
    ---------------------

    Doubly Occupied:                                                      

       1Ap   -20.584249     2Ap    -1.335646     3Ap    -0.696508  
       4Ap    -0.577383     1App   -0.506078  

    Virtual:                                                              

       5Ap     0.024468     6Ap     0.048579     7Ap     0.058769  
       8Ap     0.081971     2App    0.137763     9Ap     0.141495  
      10Ap     0.176808    11Ap     0.193400     3App    0.217786  
      12Ap     0.223540    13Ap     0.228350    14Ap     0.266176  
      15Ap     0.317533    16Ap     0.348759    17Ap     0.379790  
       4App    0.394812    18Ap     0.410613     5App    0.415839  
       6App    0.433129    19Ap     0.455972    20Ap     0.464395  
       7App    0.490607    21Ap     0.504288    22Ap     0.537209  
      23Ap     0.579167    24Ap     0.624636    25Ap     0.650393  
      26Ap     0.756937    27Ap     0.819873     8App    0.897676  
      28Ap     0.941818    29Ap     1.023497     9App    1.106115  
      30Ap     1.140791    10App    1.164500    31Ap     1.196471  
      32Ap     1.205547    33Ap     1.276392    11App    1.289503  
      34Ap     1.305328    12App    1.334761    35Ap     1.339499  
      36Ap     1.417372    37Ap     1.500264    13App    1.532050  
      38Ap     1.696348    39Ap     1.990645    14App    1.990803  
      40Ap     2.052811    15App    2.085369    41Ap     2.309926  
      42Ap     2.362001    16App    2.381079    17App    2.389996  
      43Ap     2.421787    44Ap     2.440334    45Ap     2.596252  
      46Ap     2.741991    47Ap     2.843534    48Ap     2.984293  
      49Ap     3.380580    18App    3.674155    50Ap     3.704574  
      19App    3.715345    51Ap     3.912583    52Ap     3.941883  
      53Ap     4.042128    54Ap     4.258152    20App    4.870297  
      21App    4.942161    55Ap     5.021439    56Ap     5.312983  
      57Ap     5.326613    22App    5.575015    58Ap     6.287295  
      59Ap     6.812875    60Ap    33.527002  

    Final Occupation by Irrep:
             Ap   App 
    DOCC [     4,    1 ]

  @DF-RHF Final Energy:   -76.03572400826850

   => Energetics <=

    Nuclear Repulsion Energy =              8.8014203545751517
    One-Electron Energy =                -122.2745394517575050
    Two-Electron Energy =                  37.4373950889138385
    Total Energy =                        -76.0357240082685166

Computation Completed


Properties will be evaluated at   0.000000,   0.000000,   0.000000 [a0]

Properties computed using the SCF density matrix


 Multipole Moments:

 ------------------------------------------------------------------------------------
     Multipole            Electronic (a.u.)      Nuclear  (a.u.)        Total (a.u.)
 ------------------------------------------------------------------------------------

 L = 1.  Multiply by 2.5417464519 to convert [e a0] to [Debye]
 Dipole X            :          0.6852648           -1.3175347           -0.6322699
 Dipole Y            :        -31.1787533           30.6894256           -0.4893277
 Dipole Z            :          0.0000000            0.0000000            0.0000000
 Magnitude           :                                                    0.7995041

 ------------------------------------------------------------------------------------

*** tstop() called on Lenovo-Y540-Zoha at Tue Sep 27 18:47:13 2022
Module time:
	user time   =        nan seconds =        nan minutes
	system time =        nan seconds =        nan minutes
	total time  =          1 seconds =       0.02 minutes
Total time:
	user time   =        nan seconds =        nan minutes
	system time =        nan seconds =        nan minutes
	total time  =       1252 seconds =      20.87 minutes

    Psi4 stopped on: Tuesday, 27 September 2022 06:47PM
    Psi4 wall time for execution: 0:00:01.08


    -----------------------------------------------------------------------
          Psi4: An Open-Source Ab Initio Electronic Structure Package
                               Psi4 1.6.1 release

                         Git: Rev {HEAD} 5b9f6e3 


    D. G. A. Smith, L. A. Burns, A. C. Simmonett, R. M. Parrish,
    M. C. Schieber, R. Galvelis, P. Kraus, H. Kruse, R. Di Remigio,
    A. Alenaizan, A. M. James, S. Lehtola, J. P. Misiewicz, M. Scheurer,
    R. A. Shaw, J. B. Schriber, Y. Xie, Z. L. Glick, D. A. Sirianni,
    J. S. O'Brien, J. M. Waldrop, A. Kumar, E. G. Hohenstein,
    B. P. Pritchard, B. R. Brooks, H. F. Schaefer III, A. Yu. Sokolov,
    K. Patkowski, A. E. DePrince III, U. Bozkaya, R. A. King,
    F. A. Evangelista, J. M. Turney, T. D. Crawford, C. D. Sherrill,
    J. Chem. Phys. 152(18) 184108 (2020). https://doi.org/10.1063/5.0006002

                            Additional Code Authors
    E. T. Seidl, C. L. Janssen, E. F. Valeev, M. L. Leininger,
    J. F. Gonthier, R. M. Richard, H. R. McAlexander, M. Saitow, X. Wang,
    P. Verma, M. H. Lechner, and A. Jiang

             Previous Authors, Complete List of Code Contributors,
                       and Citations for Specific Modules
    https://github.com/psi4/psi4/blob/master/codemeta.json
    https://github.com/psi4/psi4/graphs/contributors
    http://psicode.org/psi4manual/master/introduction.html#citing-psifour

    -----------------------------------------------------------------------


    Psi4 started on: Tuesday, 27 September 2022 06:25PM

    Process ID: 10544
    Host:       Lenovo-Y540-Zoha
    PSIDATADIR: C:\Users\64292\Anaconda3\envs\qm-tools\lib\share\psi4
    Memory:     476.8 MiB
    Threads:    1
    
  ==> Input QCSchema <==

--------------------------------------------------------------------------
{'driver': 'energy',
 'extras': {'psiapi': True, 'wfn_qcvars_only': True},
 'id': None,
 'keywords': {'function_kwargs': {}},
 'model': {'basis': 'aug-cc-pvdz', 'method': 'scf'},
 'molecule': {'atom_labels': ['1', '2', '3', '5', '6', '7'],
              'atomic_numbers': [8, 1, 1, 8, 1, 1],
              'fix_com': True,
              'fix_orientation': True,
              'fragment_charges': [0.0, 0.0],
              'fragment_multiplicities': [1, 1],
              'fragments': [[0, 1, 2], [3, 4, 5]],
              'geometry': [0.05118338925575475, 3.2105363494042334, 0.0, 0.05118338925575475, 1.320810223946406, 0.0,
                           -1.7781852282291912, 3.684324583322165, 0.0, 0.05118338925575475, -3.0255598646065995, 0.0,
                           1.6877342200973742, -3.970422927335511, 0.0, -1.5853674415858627, -3.970422927335512, 0.0],
              'mass_numbers': [16, 1, 1, 16, 1, 1],
              'masses': [15.99491461957, 1.00782503223, 1.00782503223, 15.99491461957, 1.00782503223, 1.00782503223],
              'molecular_charge': 0.0,
              'molecular_multiplicity': 1,
              'name': 'H4O2',
              'provenance': {'creator': 'QCElemental',
                             'routine': 'qcelemental.molparse.from_string',
                             'version': 'v0.25.0'},
              'real': [True, True, True, True, True, True],
              'schema_name': 'qcschema_molecule',
              'schema_version': 2,
              'symbols': ['O', 'H', 'H', 'O', 'H', 'H'],
              'validated': True},
 'protocols': {'stdout': True},
 'provenance': {'creator': 'QCElemental', 'routine': 'qcelemental.models.results', 'version': 'v0.25.0'},
 'schema_name': 'qcschema_input',
 'schema_version': 1}
--------------------------------------------------------------------------

Scratch directory: C:\Users\64292\AppData\Local\Temp/

*** tstart() called on Lenovo-Y540-Zoha
*** at Tue Sep 27 18:47:13 2022

   => Loading Basis Set <=

    Name: AUG-CC-PVDZ
    Role: ORBITAL
    Keyword: BASIS
    atoms 1, 4     entry O          line   254 file C:\Users\64292\Anaconda3\envs\qm-tools\lib\share\psi4\basis\aug-cc-pvdz.gbs 
    atoms 2-3, 5-6 entry H          line    40 file C:\Users\64292\Anaconda3\envs\qm-tools\lib\share\psi4\basis\aug-cc-pvdz.gbs 


         ---------------------------------------------------------
                                   SCF
               by Justin Turney, Rob Parrish, Andy Simmonett
                          and Daniel G. A. Smith
                              RHF Reference
                        1 Threads,    476 MiB Core
         ---------------------------------------------------------

  ==> Geometry <==

    Molecular point group: cs
    Full point group: Cs

    Geometry (in Bohr), charge = 0, multiplicity = 1:

       Center              X                  Y                   Z               Mass       
    ------------   -----------------  -----------------  -----------------  -----------------
         O            0.051183389256     3.210536349404     0.000000000000    15.994914619570
         H            0.051183389256     1.320810223946     0.000000000000     1.007825032230
         H           -1.778185228229     3.684324583322     0.000000000000     1.007825032230
         O            0.051183389256    -3.025559864607     0.000000000000    15.994914619570
         H            1.687734220097    -3.970422927336     0.000000000000     1.007825032230
         H           -1.585367441586    -3.970422927336     0.000000000000     1.007825032230

  Running in cs symmetry.

  Rotational constants: A =      7.04496  B =      0.16786  C =      0.16395 [cm^-1]
  Rotational constants: A = 211202.51010  B =   5032.29745  C =   4915.18394 [MHz]
  Nuclear repulsion =   33.610631256305197

  Charge       = 0
  Multiplicity = 1
  Electrons    = 20
  Nalpha       = 10
  Nbeta        = 10

  ==> Algorithm <==

  SCF Algorithm Type is DF.
  DIIS enabled.
  MOM disabled.
  Fractional occupation disabled.
  Guess Type is SAD.
  Energy threshold   = 1.00e-06
  Density threshold  = 1.00e-06
  Integral threshold = 1.00e-12

  ==> Primary Basis <==

  Basis Set: AUG-CC-PVDZ
    Blend: AUG-CC-PVDZ
    Number of shells: 38
    Number of basis functions: 82
    Number of Cartesian functions: 86
    Spherical Harmonics?: true
    Max angular momentum: 2

   => Loading Basis Set <=

    Name: (AUG-CC-PVDZ AUX)
    Role: JKFIT
    Keyword: DF_BASIS_SCF
    atoms 1, 4     entry O          line   270 file C:\Users\64292\Anaconda3\envs\qm-tools\lib\share\psi4\basis\aug-cc-pvdz-jkfit.gbs 
    atoms 2-3, 5-6 entry H          line    70 file C:\Users\64292\Anaconda3\envs\qm-tools\lib\share\psi4\basis\aug-cc-pvdz-jkfit.gbs 

  ==> Integral Setup <==

  DFHelper Memory: AOs need 0.017 GiB; user supplied 0.349 GiB. Using in-core AOs.

  ==> MemDFJK: Density-Fitted J/K Matrices <==

    J tasked:                   Yes
    K tasked:                   Yes
    wK tasked:                   No
    OpenMP threads:               1
    Memory [MiB]:               357
    Algorithm:                 Core
    Schwarz Cutoff:           1E-12
    Mask sparsity (%):       0.0000
    Fitting Condition:        1E-10

   => Auxiliary Basis Set <=

  Basis Set: (AUG-CC-PVDZ AUX)
    Blend: AUG-CC-PVDZ-JKFIT
    Number of shells: 104
    Number of basis functions: 300
    Number of Cartesian functions: 342
    Spherical Harmonics?: true
    Max angular momentum: 3

  Minimum eigenvalue in the overlap matrix is 2.0891890094E-03.
  Reciprocal condition number of the overlap matrix is 3.0028144484E-04.
    Using symmetric orthogonalization.

  ==> Pre-Iterations <==

  SCF Guess: Superposition of Atomic Densities via on-the-fly atomic UHF (no occupation information).

   -------------------------
    Irrep   Nso     Nmo    
   -------------------------
     A'        60      60 
     A"        22      22 
   -------------------------
    Total      82      82
   -------------------------

  ==> Iterations <==

                           Total Energy        Delta E     RMS |[F,P]|

   @DF-RHF iter SAD:  -150.85235930241603   -1.50852e+02   0.00000e+00 
   @DF-RHF iter   1:  -151.90932727589995   -1.05697e+00   9.74894e-03 DIIS/ADIIS
   @DF-RHF iter   2:  -152.00955505431921   -1.00228e-01   6.48349e-03 DIIS/ADIIS
   @DF-RHF iter   3:  -152.07006759429183   -6.05125e-02   5.40384e-04 DIIS/ADIIS
   @DF-RHF iter   4:  -152.07103874162186   -9.71147e-04   1.15311e-04 DIIS/ADIIS
   @DF-RHF iter   5:  -152.07109589161215   -5.71500e-05   3.24311e-05 DIIS
   @DF-RHF iter   6:  -152.07110121850749   -5.32690e-06   1.44478e-05 DIIS
   @DF-RHF iter   7:  -152.07110181814517   -5.99638e-07   3.40829e-06 DIIS
   @DF-RHF iter   8:  -152.07110188621283   -6.80677e-08   5.71690e-07 DIIS
  Energy and wave function converged.


  ==> Post-Iterations <==

    Orbital Energies [Eh]
    ---------------------

    Doubly Occupied:                                                      

       1Ap   -20.595522     2Ap   -20.558555     3Ap    -1.346623  
       4Ap    -1.311302     5Ap    -0.741123     6Ap    -0.674078  
       7Ap    -0.576365     8Ap    -0.549164     1App   -0.521522  
       2App   -0.481928  

    Virtual:                                                              

       9Ap     0.026202    10Ap     0.049053    11Ap     0.057891  
      12Ap     0.090436     3App    0.174636    13Ap     0.180327  
      14Ap     0.193801    15Ap     0.213712    16Ap     0.232493  
       4App    0.236944    17Ap     0.246227    18Ap     0.264675  
      19Ap     0.297669    20Ap     0.305203    21Ap     0.360563  
       5App    0.360980     6App    0.407793    22Ap     0.423140  
       7App    0.437692    23Ap     0.446645     8App    0.519141  
      24Ap     0.529825    25Ap     0.532958    26Ap     0.579679  
      27Ap     0.629289    28Ap     0.655222    29Ap     0.666972  
      30Ap     0.774888    31Ap     0.852330    32Ap     0.875099  
      33Ap     0.911544    34Ap     0.979643     9App    1.046783  
      10App    1.127774    11App    1.137676    35Ap     1.164670  
      36Ap     1.207970    12App    1.220118    37Ap     1.323326  
      38Ap     1.428562    13App    1.462998    39Ap     1.498192  
      40Ap     1.526536    14App    1.566982    41Ap     1.608968  
      42Ap     1.890041    43Ap     1.951779    15App    2.013806  
      16App    2.028735    44Ap     2.034058    17App    2.036482  
      18App    2.112643    45Ap     2.347452    46Ap     2.376719  
      47Ap     2.433502    48Ap     2.470722    49Ap     2.513722  
      50Ap     2.697234    51Ap     2.747750    52Ap     2.784664  
      53Ap     2.925491    54Ap     3.012437    19App    3.637594  
      20App    3.680636    21App    3.701709    55Ap     3.730028  
      56Ap     3.744759    22App    3.756750    57Ap     4.052603  
      58Ap     4.121499    59Ap     4.170504    60Ap     4.299641  

    Final Occupation by Irrep:
             Ap   App 
    DOCC [     8,    2 ]

  @DF-RHF Final Energy:  -152.07110188621283

   => Energetics <=

    Nuclear Repulsion Energy =             33.6106312563051972
    One-Electron Energy =                -276.6510803805664409
    Two-Electron Energy =                  90.9693472380483996
    Total Energy =                       -152.0711018862128299

Computation Completed


Properties will be evaluated at   0.000000,   0.000000,   0.000000 [a0]

Properties computed using the SCF density matrix


 Multipole Moments:

 ------------------------------------------------------------------------------------
     Multipole            Electronic (a.u.)      Nuclear  (a.u.)        Total (a.u.)
 ------------------------------------------------------------------------------------

 L = 1.  Multiply by 2.5417464519 to convert [e a0] to [Debye]
 Dipole X            :          0.1950895           -0.8057008           -0.6106113
 Dipole Y            :          0.1146222           -1.4558992           -1.3412770
 Dipole Z            :          0.0000000            0.0000000            0.0000000
 Magnitude           :                                                    1.4737266

 ------------------------------------------------------------------------------------

*** tstop() called on Lenovo-Y540-Zoha at Tue Sep 27 18:47:14 2022
Module time:
	user time   =        nan seconds =        nan minutes
	system time =        nan seconds =        nan minutes
	total time  =          1 seconds =       0.02 minutes
Total time:
	user time   =        nan seconds =        nan minutes
	system time =        nan seconds =        nan minutes
	total time  =       1253 seconds =      20.88 minutes

    Psi4 stopped on: Tuesday, 27 September 2022 06:47PM
    Psi4 wall time for execution: 0:00:01.08


  //>>>>>>>>>>>>>>>>>>>>>>>>>>>>>>>>>>>//
  //          ManyBody Results         //
  //<<<<<<<<<<<<<<<<<<<<<<<<<<<<<<<<<<<//


   ==> N-Body: Counterpoise Corrected (CP) energies <==

        n-Body     Total Energy            Interaction Energy                          N-body Contribution to Interaction Energy
                   [Eh]                    [Eh]                  [kcal/mol]            [Eh]                  [kcal/mol]
             1  N/A                         0.000000000000        0.000000000000        0.000000000000        0.000000000000
  FULL/RTN   2  N/A                        -0.005521401049       -3.464731466564       -0.005521401049       -3.464731466564

