
Scratch directory: C:\Users\64292\AppData\Local\Temp/

  //>>>>>>>>>>>>>>>>>>>>>>>>>>>>>>>>>>>>>//
  // ManyBody Setup: N-Body Levels [1, 2]//
  //<<<<<<<<<<<<<<<<<<<<<<<<<<<<<<<<<<<<<//

        Number of 1-body computations:     2
        Number of 2-body computations:     1

    -----------------------------------------------------------------------
          Psi4: An Open-Source Ab Initio Electronic Structure Package
                               Psi4 1.6.1 release

                         Git: Rev {HEAD} 5b9f6e3 


    D. G. A. Smith, L. A. Burns, A. C. Simmonett, R. M. Parrish,
    M. C. Schieber, R. Galvelis, P. Kraus, H. Kruse, R. Di Remigio,
    A. Alenaizan, A. M. James, S. Lehtola, J. P. Misiewicz, M. Scheurer,
    R. A. Shaw, J. B. Schriber, Y. Xie, Z. L. Glick, D. A. Sirianni,
    J. S. O'Brien, J. M. Waldrop, A. Kumar, E. G. Hohenstein,
    B. P. Pritchard, B. R. Brooks, H. F. Schaefer III, A. Yu. Sokolov,
    K. Patkowski, A. E. DePrince III, U. Bozkaya, R. A. King,
    F. A. Evangelista, J. M. Turney, T. D. Crawford, C. D. Sherrill,
    J. Chem. Phys. 152(18) 184108 (2020). https://doi.org/10.1063/5.0006002

                            Additional Code Authors
    E. T. Seidl, C. L. Janssen, E. F. Valeev, M. L. Leininger,
    J. F. Gonthier, R. M. Richard, H. R. McAlexander, M. Saitow, X. Wang,
    P. Verma, M. H. Lechner, and A. Jiang

             Previous Authors, Complete List of Code Contributors,
                       and Citations for Specific Modules
    https://github.com/psi4/psi4/blob/master/codemeta.json
    https://github.com/psi4/psi4/graphs/contributors
    http://psicode.org/psi4manual/master/introduction.html#citing-psifour

    -----------------------------------------------------------------------


    Psi4 started on: Tuesday, 27 September 2022 06:25PM

    Process ID: 10544
    Host:       Lenovo-Y540-Zoha
    PSIDATADIR: C:\Users\64292\Anaconda3\envs\qm-tools\lib\share\psi4
    Memory:     476.8 MiB
    Threads:    1
    
  ==> Input QCSchema <==

--------------------------------------------------------------------------
{'driver': 'energy',
 'extras': {'psiapi': True, 'wfn_qcvars_only': True},
 'id': None,
 'keywords': {'function_kwargs': {}},
 'model': {'basis': 'aug-cc-pvdz', 'method': 'scf'},
 'molecule': {'atom_labels': ['1', '2', '3', '5', '6', '7'],
              'atomic_numbers': [8, 1, 1, 8, 1, 1],
              'fix_com': True,
              'fix_orientation': True,
              'fragment_charges': [0.0, 0.0],
              'fragment_multiplicities': [1, 1],
              'fragments': [[0, 1, 2], [3, 4, 5]],
              'geometry': [3.08214385307306e-17, -0.05118338925575476, -3.116050043131342, 3.08214385307306e-17,
                           -0.05118338925575476, -1.2263239176735146, 3.08214385307306e-17, 1.7781852282291912,
                           -3.5898382770492736, 3.08214385307306e-17, -0.05118338925575476, 2.931073558333708,
                           1.1572161902445866, 1.106032800988831, 3.875936621062623, -1.1572161902445877,
                           -1.2083995795003422, 3.875936621062622],
              'mass_numbers': [16, 1, 1, 16, 1, 1],
              'masses': [15.99491461957, 1.00782503223, 1.00782503223, 15.99491461957, 1.00782503223, 1.00782503223],
              'molecular_charge': 0.0,
              'molecular_multiplicity': 1,
              'name': 'H4O2',
              'provenance': {'creator': 'QCElemental',
                             'routine': 'qcelemental.molparse.from_string',
                             'version': 'v0.25.0'},
              'real': [False, False, False, True, True, True],
              'schema_name': 'qcschema_molecule',
              'schema_version': 2,
              'symbols': ['O', 'H', 'H', 'O', 'H', 'H'],
              'validated': True},
 'protocols': {'stdout': True},
 'provenance': {'creator': 'QCElemental', 'routine': 'qcelemental.models.results', 'version': 'v0.25.0'},
 'schema_name': 'qcschema_input',
 'schema_version': 1}
--------------------------------------------------------------------------

Scratch directory: C:\Users\64292\AppData\Local\Temp/

*** tstart() called on Lenovo-Y540-Zoha
*** at Tue Sep 27 18:46:12 2022

   => Loading Basis Set <=

    Name: AUG-CC-PVDZ
    Role: ORBITAL
    Keyword: BASIS
    atoms 1, 4     entry O          line   254 file C:\Users\64292\Anaconda3\envs\qm-tools\lib\share\psi4\basis\aug-cc-pvdz.gbs 
    atoms 2-3, 5-6 entry H          line    40 file C:\Users\64292\Anaconda3\envs\qm-tools\lib\share\psi4\basis\aug-cc-pvdz.gbs 


         ---------------------------------------------------------
                                   SCF
               by Justin Turney, Rob Parrish, Andy Simmonett
                          and Daniel G. A. Smith
                              RHF Reference
                        1 Threads,    476 MiB Core
         ---------------------------------------------------------

  ==> Geometry <==

    Molecular point group: c1
    Full point group: C1

    Geometry (in Bohr), charge = 0, multiplicity = 1:

       Center              X                  Y                   Z               Mass       
    ------------   -----------------  -----------------  -----------------  -----------------
      Gh(O)           0.000000000000    -0.051183389256    -3.116050043131    15.994914619570
      Gh(H)           0.000000000000    -0.051183389256    -1.226323917674     1.007825032230
      Gh(H)           0.000000000000     1.778185228229    -3.589838277049     1.007825032230
         O            0.000000000000    -0.051183389256     2.931073558334    15.994914619570
         H            1.157216190245     1.106032800989     3.875936621063     1.007825032230
         H           -1.157216190245    -1.208399579500     3.875936621063     1.007825032230

  Running in c1 symmetry.

  Rotational constants: A =      7.04515  B =      0.17769  C =      0.17447 [cm^-1]
  Rotational constants: A = 211208.36802  B =   5327.06239  C =   5230.60530 [MHz]
  Nuclear repulsion =    8.772355975749338

  Charge       = 0
  Multiplicity = 1
  Electrons    = 10
  Nalpha       = 5
  Nbeta        = 5

  ==> Algorithm <==

  SCF Algorithm Type is DF.
  DIIS enabled.
  MOM disabled.
  Fractional occupation disabled.
  Guess Type is SAD.
  Energy threshold   = 1.00e-06
  Density threshold  = 1.00e-06
  Integral threshold = 1.00e-12

  ==> Primary Basis <==

  Basis Set: AUG-CC-PVDZ
    Blend: AUG-CC-PVDZ
    Number of shells: 38
    Number of basis functions: 82
    Number of Cartesian functions: 86
    Spherical Harmonics?: true
    Max angular momentum: 2

   => Loading Basis Set <=

    Name: (AUG-CC-PVDZ AUX)
    Role: JKFIT
    Keyword: DF_BASIS_SCF
    atoms 1, 4     entry O          line   270 file C:\Users\64292\Anaconda3\envs\qm-tools\lib\share\psi4\basis\aug-cc-pvdz-jkfit.gbs 
    atoms 2-3, 5-6 entry H          line    70 file C:\Users\64292\Anaconda3\envs\qm-tools\lib\share\psi4\basis\aug-cc-pvdz-jkfit.gbs 

  ==> Integral Setup <==

  DFHelper Memory: AOs need 0.017 GiB; user supplied 0.349 GiB. Using in-core AOs.

  ==> MemDFJK: Density-Fitted J/K Matrices <==

    J tasked:                   Yes
    K tasked:                   Yes
    wK tasked:                   No
    OpenMP threads:               1
    Memory [MiB]:               357
    Algorithm:                 Core
    Schwarz Cutoff:           1E-12
    Mask sparsity (%):       0.0000
    Fitting Condition:        1E-10

   => Auxiliary Basis Set <=

  Basis Set: (AUG-CC-PVDZ AUX)
    Blend: AUG-CC-PVDZ-JKFIT
    Number of shells: 104
    Number of basis functions: 300
    Number of Cartesian functions: 342
    Spherical Harmonics?: true
    Max angular momentum: 3

  Minimum eigenvalue in the overlap matrix is 2.1209845519E-03.
  Reciprocal condition number of the overlap matrix is 2.9977810816E-04.
    Using symmetric orthogonalization.

  ==> Pre-Iterations <==

  SCF Guess: Superposition of Atomic Densities via on-the-fly atomic UHF (no occupation information).

   -------------------------
    Irrep   Nso     Nmo    
   -------------------------
     A         82      82 
   -------------------------
    Total      82      82
   -------------------------

  ==> Iterations <==

                           Total Energy        Delta E     RMS |[F,P]|

   @DF-RHF iter SAD:   -75.40236281814451   -7.54024e+01   0.00000e+00 
   @DF-RHF iter   1:   -75.94509333756173   -5.42731e-01   5.50835e-03 DIIS/ADIIS
   @DF-RHF iter   2:   -75.99627758615094   -5.11842e-02   3.73016e-03 DIIS/ADIIS
   @DF-RHF iter   3:   -76.02936931468801   -3.30917e-02   2.79161e-04 DIIS/ADIIS
   @DF-RHF iter   4:   -76.02984032467603   -4.71010e-04   6.67491e-05 DIIS
   @DF-RHF iter   5:   -76.02987292102810   -3.25964e-05   1.62932e-05 DIIS
   @DF-RHF iter   6:   -76.02987599511115   -3.07408e-06   3.49655e-06 DIIS
   @DF-RHF iter   7:   -76.02987615004281   -1.54932e-07   6.42263e-07 DIIS
  Energy and wave function converged.


  ==> Post-Iterations <==

    Orbital Energies [Eh]
    ---------------------

    Doubly Occupied:                                                      

       1A    -20.575765     2A     -1.325838     3A     -0.721192  
       4A     -0.548246     5A     -0.500692  

    Virtual:                                                              

       6A      0.032659     7A      0.053165     8A      0.055999  
       9A      0.082336    10A      0.161582    11A      0.171168  
      12A      0.181541    13A      0.197712    14A      0.213376  
      15A      0.223248    16A      0.238282    17A      0.251711  
      18A      0.310993    19A      0.328296    20A      0.371040  
      21A      0.402225    22A      0.436591    23A      0.452075  
      24A      0.459734    25A      0.492389    26A      0.518146  
      27A      0.529181    28A      0.545077    29A      0.566792  
      30A      0.614706    31A      0.645362    32A      0.660787  
      33A      0.705142    34A      0.864464    35A      0.877284  
      36A      0.927937    37A      0.939956    38A      1.120582  
      39A      1.146430    40A      1.151950    41A      1.204771  
      42A      1.239010    43A      1.282411    44A      1.334930  
      45A      1.364585    46A      1.393618    47A      1.426001  
      48A      1.460728    49A      1.537450    50A      1.572555  
      51A      1.853970    52A      1.992352    53A      2.048322  
      54A      2.055899    55A      2.085097    56A      2.276945  
      57A      2.368771    58A      2.411212    59A      2.446587  
      60A      2.468711    61A      2.527802    62A      2.580776  
      63A      2.694546    64A      2.812156    65A      2.919908  
      66A      3.423668    67A      3.692775    68A      3.700967  
      69A      3.806748    70A      3.906289    71A      4.077105  
      72A      4.144062    73A      4.184855    74A      4.910651  
      75A      4.956428    76A      4.995602    77A      5.172875  
      78A      5.483400    79A      5.655313    80A      6.416494  
      81A      6.848766    82A     33.567767  

    Final Occupation by Irrep:
              A 
    DOCC [     5 ]

  @DF-RHF Final Energy:   -76.02987615004281

   => Energetics <=

    Nuclear Repulsion Energy =              8.7723559757493383
    One-Electron Energy =                -122.2609617312026558
    Two-Electron Energy =                  37.4587296054105110
    Total Energy =                        -76.0298761500428100

Computation Completed


Properties will be evaluated at   0.000000,   0.000000,   0.000000 [a0]

Properties computed using the SCF density matrix


 Multipole Moments:

 ------------------------------------------------------------------------------------
     Multipole            Electronic (a.u.)      Nuclear  (a.u.)        Total (a.u.)
 ------------------------------------------------------------------------------------

 L = 1.  Multiply by 2.5417464519 to convert [e a0] to [Debye]
 Dipole X            :          0.0001192           -0.0000000            0.0001192
 Dipole Y            :          0.5116331           -0.5118339           -0.0002007
 Dipole Z            :        -30.5141622           31.2004617            0.6862995
 Magnitude           :                                                    0.6862995

 ------------------------------------------------------------------------------------

*** tstop() called on Lenovo-Y540-Zoha at Tue Sep 27 18:46:13 2022
Module time:
	user time   =        nan seconds =        nan minutes
	system time =        nan seconds =        nan minutes
	total time  =          1 seconds =       0.02 minutes
Total time:
	user time   =        nan seconds =        nan minutes
	system time =        nan seconds =        nan minutes
	total time  =       1192 seconds =      19.87 minutes

    Psi4 stopped on: Tuesday, 27 September 2022 06:46PM
    Psi4 wall time for execution: 0:00:01.01


    -----------------------------------------------------------------------
          Psi4: An Open-Source Ab Initio Electronic Structure Package
                               Psi4 1.6.1 release

                         Git: Rev {HEAD} 5b9f6e3 


    D. G. A. Smith, L. A. Burns, A. C. Simmonett, R. M. Parrish,
    M. C. Schieber, R. Galvelis, P. Kraus, H. Kruse, R. Di Remigio,
    A. Alenaizan, A. M. James, S. Lehtola, J. P. Misiewicz, M. Scheurer,
    R. A. Shaw, J. B. Schriber, Y. Xie, Z. L. Glick, D. A. Sirianni,
    J. S. O'Brien, J. M. Waldrop, A. Kumar, E. G. Hohenstein,
    B. P. Pritchard, B. R. Brooks, H. F. Schaefer III, A. Yu. Sokolov,
    K. Patkowski, A. E. DePrince III, U. Bozkaya, R. A. King,
    F. A. Evangelista, J. M. Turney, T. D. Crawford, C. D. Sherrill,
    J. Chem. Phys. 152(18) 184108 (2020). https://doi.org/10.1063/5.0006002

                            Additional Code Authors
    E. T. Seidl, C. L. Janssen, E. F. Valeev, M. L. Leininger,
    J. F. Gonthier, R. M. Richard, H. R. McAlexander, M. Saitow, X. Wang,
    P. Verma, M. H. Lechner, and A. Jiang

             Previous Authors, Complete List of Code Contributors,
                       and Citations for Specific Modules
    https://github.com/psi4/psi4/blob/master/codemeta.json
    https://github.com/psi4/psi4/graphs/contributors
    http://psicode.org/psi4manual/master/introduction.html#citing-psifour

    -----------------------------------------------------------------------


    Psi4 started on: Tuesday, 27 September 2022 06:25PM

    Process ID: 10544
    Host:       Lenovo-Y540-Zoha
    PSIDATADIR: C:\Users\64292\Anaconda3\envs\qm-tools\lib\share\psi4
    Memory:     476.8 MiB
    Threads:    1
    
  ==> Input QCSchema <==

--------------------------------------------------------------------------
{'driver': 'energy',
 'extras': {'psiapi': True, 'wfn_qcvars_only': True},
 'id': None,
 'keywords': {'function_kwargs': {}},
 'model': {'basis': 'aug-cc-pvdz', 'method': 'scf'},
 'molecule': {'atom_labels': ['1', '2', '3', '5', '6', '7'],
              'atomic_numbers': [8, 1, 1, 8, 1, 1],
              'fix_com': True,
              'fix_orientation': True,
              'fragment_charges': [0.0, 0.0],
              'fragment_multiplicities': [1, 1],
              'fragments': [[0, 1, 2], [3, 4, 5]],
              'geometry': [3.08214385307306e-17, -0.05118338925575476, -3.116050043131342, 3.08214385307306e-17,
                           -0.05118338925575476, -1.2263239176735146, 3.08214385307306e-17, 1.7781852282291912,
                           -3.5898382770492736, 3.08214385307306e-17, -0.05118338925575476, 2.931073558333708,
                           1.1572161902445866, 1.106032800988831, 3.875936621062623, -1.1572161902445877,
                           -1.2083995795003422, 3.875936621062622],
              'mass_numbers': [16, 1, 1, 16, 1, 1],
              'masses': [15.99491461957, 1.00782503223, 1.00782503223, 15.99491461957, 1.00782503223, 1.00782503223],
              'molecular_charge': 0.0,
              'molecular_multiplicity': 1,
              'name': 'H4O2',
              'provenance': {'creator': 'QCElemental',
                             'routine': 'qcelemental.molparse.from_string',
                             'version': 'v0.25.0'},
              'real': [True, True, True, False, False, False],
              'schema_name': 'qcschema_molecule',
              'schema_version': 2,
              'symbols': ['O', 'H', 'H', 'O', 'H', 'H'],
              'validated': True},
 'protocols': {'stdout': True},
 'provenance': {'creator': 'QCElemental', 'routine': 'qcelemental.models.results', 'version': 'v0.25.0'},
 'schema_name': 'qcschema_input',
 'schema_version': 1}
--------------------------------------------------------------------------

Scratch directory: C:\Users\64292\AppData\Local\Temp/

*** tstart() called on Lenovo-Y540-Zoha
*** at Tue Sep 27 18:46:13 2022

   => Loading Basis Set <=

    Name: AUG-CC-PVDZ
    Role: ORBITAL
    Keyword: BASIS
    atoms 1, 4     entry O          line   254 file C:\Users\64292\Anaconda3\envs\qm-tools\lib\share\psi4\basis\aug-cc-pvdz.gbs 
    atoms 2-3, 5-6 entry H          line    40 file C:\Users\64292\Anaconda3\envs\qm-tools\lib\share\psi4\basis\aug-cc-pvdz.gbs 


         ---------------------------------------------------------
                                   SCF
               by Justin Turney, Rob Parrish, Andy Simmonett
                          and Daniel G. A. Smith
                              RHF Reference
                        1 Threads,    476 MiB Core
         ---------------------------------------------------------

  ==> Geometry <==

    Molecular point group: c1
    Full point group: C1

    Geometry (in Bohr), charge = 0, multiplicity = 1:

       Center              X                  Y                   Z               Mass       
    ------------   -----------------  -----------------  -----------------  -----------------
         O            0.000000000000    -0.051183389256    -3.116050043131    15.994914619570
         H            0.000000000000    -0.051183389256    -1.226323917674     1.007825032230
         H            0.000000000000     1.778185228229    -3.589838277049     1.007825032230
      Gh(O)           0.000000000000    -0.051183389256     2.931073558334    15.994914619570
      Gh(H)           1.157216190245     1.106032800989     3.875936621063     1.007825032230
      Gh(H)          -1.157216190245    -1.208399579500     3.875936621063     1.007825032230

  Running in c1 symmetry.

  Rotational constants: A =      7.04515  B =      0.17769  C =      0.17447 [cm^-1]
  Rotational constants: A = 211208.36802  B =   5327.06239  C =   5230.60530 [MHz]
  Nuclear repulsion =    8.801420354575152

  Charge       = 0
  Multiplicity = 1
  Electrons    = 10
  Nalpha       = 5
  Nbeta        = 5

  ==> Algorithm <==

  SCF Algorithm Type is DF.
  DIIS enabled.
  MOM disabled.
  Fractional occupation disabled.
  Guess Type is SAD.
  Energy threshold   = 1.00e-06
  Density threshold  = 1.00e-06
  Integral threshold = 1.00e-12

  ==> Primary Basis <==

  Basis Set: AUG-CC-PVDZ
    Blend: AUG-CC-PVDZ
    Number of shells: 38
    Number of basis functions: 82
    Number of Cartesian functions: 86
    Spherical Harmonics?: true
    Max angular momentum: 2

   => Loading Basis Set <=

    Name: (AUG-CC-PVDZ AUX)
    Role: JKFIT
    Keyword: DF_BASIS_SCF
    atoms 1, 4     entry O          line   270 file C:\Users\64292\Anaconda3\envs\qm-tools\lib\share\psi4\basis\aug-cc-pvdz-jkfit.gbs 
    atoms 2-3, 5-6 entry H          line    70 file C:\Users\64292\Anaconda3\envs\qm-tools\lib\share\psi4\basis\aug-cc-pvdz-jkfit.gbs 

  ==> Integral Setup <==

  DFHelper Memory: AOs need 0.017 GiB; user supplied 0.349 GiB. Using in-core AOs.

  ==> MemDFJK: Density-Fitted J/K Matrices <==

    J tasked:                   Yes
    K tasked:                   Yes
    wK tasked:                   No
    OpenMP threads:               1
    Memory [MiB]:               357
    Algorithm:                 Core
    Schwarz Cutoff:           1E-12
    Mask sparsity (%):       0.0000
    Fitting Condition:        1E-10

   => Auxiliary Basis Set <=

  Basis Set: (AUG-CC-PVDZ AUX)
    Blend: AUG-CC-PVDZ-JKFIT
    Number of shells: 104
    Number of basis functions: 300
    Number of Cartesian functions: 342
    Spherical Harmonics?: true
    Max angular momentum: 3

  Minimum eigenvalue in the overlap matrix is 2.1209845519E-03.
  Reciprocal condition number of the overlap matrix is 2.9977810816E-04.
    Using symmetric orthogonalization.

  ==> Pre-Iterations <==

  SCF Guess: Superposition of Atomic Densities via on-the-fly atomic UHF (no occupation information).

   -------------------------
    Irrep   Nso     Nmo    
   -------------------------
     A         82      82 
   -------------------------
    Total      82      82
   -------------------------

  ==> Iterations <==

                           Total Energy        Delta E     RMS |[F,P]|

   @DF-RHF iter SAD:   -75.41487091446440   -7.54149e+01   0.00000e+00 
   @DF-RHF iter   1:   -75.94941325230235   -5.34542e-01   5.50542e-03 DIIS/ADIIS
   @DF-RHF iter   2:   -76.00129148034523   -5.18782e-02   3.77484e-03 DIIS/ADIIS
   @DF-RHF iter   3:   -76.03524499614997   -3.39535e-02   2.81160e-04 DIIS/ADIIS
   @DF-RHF iter   4:   -76.03569852273122   -4.53527e-04   6.60364e-05 DIIS
   @DF-RHF iter   5:   -76.03572868162888   -3.01589e-05   1.56315e-05 DIIS
   @DF-RHF iter   6:   -76.03573125323510   -2.57161e-06   3.09234e-06 DIIS
   @DF-RHF iter   7:   -76.03573135663871   -1.03404e-07   5.04854e-07 DIIS
  Energy and wave function converged.


  ==> Post-Iterations <==

    Orbital Energies [Eh]
    ---------------------

    Doubly Occupied:                                                      

       1A    -20.584248     2A     -1.335640     3A     -0.696500  
       4A     -0.577374     5A     -0.506075  

    Virtual:                                                              

       6A      0.024631     7A      0.049340     8A      0.058438  
       9A      0.080026    10A      0.134877    11A      0.147152  
      12A      0.179938    13A      0.192198    14A      0.218744  
      15A      0.224832    16A      0.228220    17A      0.267143  
      18A      0.322820    19A      0.358071    20A      0.364542  
      21A      0.396374    22A      0.404028    23A      0.415165  
      24A      0.424182    25A      0.465172    26A      0.484507  
      27A      0.493057    28A      0.505083    29A      0.539650  
      30A      0.578145    31A      0.615153    32A      0.648297  
      33A      0.746721    34A      0.827413    35A      0.905082  
      36A      0.953568    37A      1.034606    38A      1.106766  
      39A      1.143730    40A      1.166926    41A      1.194113  
      42A      1.203902    43A      1.275296    44A      1.296274  
      45A      1.307263    46A      1.333793    47A      1.348110  
      48A      1.420804    49A      1.496029    50A      1.549459  
      51A      1.707578    52A      1.988130    53A      1.993115  
      54A      2.056654    55A      2.085018    56A      2.323932  
      57A      2.362848    58A      2.381146    59A      2.390853  
      60A      2.425403    61A      2.442534    62A      2.583161  
      63A      2.725626    64A      2.874655    65A      2.985038  
      66A      3.390160    67A      3.674930    68A      3.703609  
      69A      3.722931    70A      3.920263    71A      3.949497  
      72A      4.042458    73A      4.263459    74A      4.885656  
      75A      4.940647    76A      5.036203    77A      5.324640  
      78A      5.327479    79A      5.581438    80A      6.308877  
      81A      6.811158    82A     33.527161  

    Final Occupation by Irrep:
              A 
    DOCC [     5 ]

  @DF-RHF Final Energy:   -76.03573135663871

   => Energetics <=

    Nuclear Repulsion Energy =              8.8014203545751517
    One-Electron Energy =                -122.2746080231583079
    Two-Electron Energy =                  37.4374563119444375
    Total Energy =                        -76.0357313566387063

Computation Completed


Properties will be evaluated at   0.000000,   0.000000,   0.000000 [a0]

Properties computed using the SCF density matrix


 Multipole Moments:

 ------------------------------------------------------------------------------------
     Multipole            Electronic (a.u.)      Nuclear  (a.u.)        Total (a.u.)
 ------------------------------------------------------------------------------------

 L = 1.  Multiply by 2.5417464519 to convert [e a0] to [Debye]
 Dipole X            :          0.0000879            0.0000000            0.0000879
 Dipole Y            :         -0.6853709            1.3175347            0.6321638
 Dipole Z            :         30.2337463          -29.7445625            0.4891838
 Magnitude           :                                                    0.7993321

 ------------------------------------------------------------------------------------

*** tstop() called on Lenovo-Y540-Zoha at Tue Sep 27 18:46:14 2022
Module time:
	user time   =        nan seconds =        nan minutes
	system time =        nan seconds =        nan minutes
	total time  =          1 seconds =       0.02 minutes
Total time:
	user time   =        nan seconds =        nan minutes
	system time =        nan seconds =        nan minutes
	total time  =       1193 seconds =      19.88 minutes

    Psi4 stopped on: Tuesday, 27 September 2022 06:46PM
    Psi4 wall time for execution: 0:00:01.13


    -----------------------------------------------------------------------
          Psi4: An Open-Source Ab Initio Electronic Structure Package
                               Psi4 1.6.1 release

                         Git: Rev {HEAD} 5b9f6e3 


    D. G. A. Smith, L. A. Burns, A. C. Simmonett, R. M. Parrish,
    M. C. Schieber, R. Galvelis, P. Kraus, H. Kruse, R. Di Remigio,
    A. Alenaizan, A. M. James, S. Lehtola, J. P. Misiewicz, M. Scheurer,
    R. A. Shaw, J. B. Schriber, Y. Xie, Z. L. Glick, D. A. Sirianni,
    J. S. O'Brien, J. M. Waldrop, A. Kumar, E. G. Hohenstein,
    B. P. Pritchard, B. R. Brooks, H. F. Schaefer III, A. Yu. Sokolov,
    K. Patkowski, A. E. DePrince III, U. Bozkaya, R. A. King,
    F. A. Evangelista, J. M. Turney, T. D. Crawford, C. D. Sherrill,
    J. Chem. Phys. 152(18) 184108 (2020). https://doi.org/10.1063/5.0006002

                            Additional Code Authors
    E. T. Seidl, C. L. Janssen, E. F. Valeev, M. L. Leininger,
    J. F. Gonthier, R. M. Richard, H. R. McAlexander, M. Saitow, X. Wang,
    P. Verma, M. H. Lechner, and A. Jiang

             Previous Authors, Complete List of Code Contributors,
                       and Citations for Specific Modules
    https://github.com/psi4/psi4/blob/master/codemeta.json
    https://github.com/psi4/psi4/graphs/contributors
    http://psicode.org/psi4manual/master/introduction.html#citing-psifour

    -----------------------------------------------------------------------


    Psi4 started on: Tuesday, 27 September 2022 06:25PM

    Process ID: 10544
    Host:       Lenovo-Y540-Zoha
    PSIDATADIR: C:\Users\64292\Anaconda3\envs\qm-tools\lib\share\psi4
    Memory:     476.8 MiB
    Threads:    1
    
  ==> Input QCSchema <==

--------------------------------------------------------------------------
{'driver': 'energy',
 'extras': {'psiapi': True, 'wfn_qcvars_only': True},
 'id': None,
 'keywords': {'function_kwargs': {}},
 'model': {'basis': 'aug-cc-pvdz', 'method': 'scf'},
 'molecule': {'atom_labels': ['1', '2', '3', '5', '6', '7'],
              'atomic_numbers': [8, 1, 1, 8, 1, 1],
              'fix_com': True,
              'fix_orientation': True,
              'fragment_charges': [0.0, 0.0],
              'fragment_multiplicities': [1, 1],
              'fragments': [[0, 1, 2], [3, 4, 5]],
              'geometry': [3.08214385307306e-17, -0.05118338925575476, -3.116050043131342, 3.08214385307306e-17,
                           -0.05118338925575476, -1.2263239176735146, 3.08214385307306e-17, 1.7781852282291912,
                           -3.5898382770492736, 3.08214385307306e-17, -0.05118338925575476, 2.931073558333708,
                           1.1572161902445866, 1.106032800988831, 3.875936621062623, -1.1572161902445877,
                           -1.2083995795003422, 3.875936621062622],
              'mass_numbers': [16, 1, 1, 16, 1, 1],
              'masses': [15.99491461957, 1.00782503223, 1.00782503223, 15.99491461957, 1.00782503223, 1.00782503223],
              'molecular_charge': 0.0,
              'molecular_multiplicity': 1,
              'name': 'H4O2',
              'provenance': {'creator': 'QCElemental',
                             'routine': 'qcelemental.molparse.from_string',
                             'version': 'v0.25.0'},
              'real': [True, True, True, True, True, True],
              'schema_name': 'qcschema_molecule',
              'schema_version': 2,
              'symbols': ['O', 'H', 'H', 'O', 'H', 'H'],
              'validated': True},
 'protocols': {'stdout': True},
 'provenance': {'creator': 'QCElemental', 'routine': 'qcelemental.models.results', 'version': 'v0.25.0'},
 'schema_name': 'qcschema_input',
 'schema_version': 1}
--------------------------------------------------------------------------

Scratch directory: C:\Users\64292\AppData\Local\Temp/

*** tstart() called on Lenovo-Y540-Zoha
*** at Tue Sep 27 18:46:15 2022

   => Loading Basis Set <=

    Name: AUG-CC-PVDZ
    Role: ORBITAL
    Keyword: BASIS
    atoms 1, 4     entry O          line   254 file C:\Users\64292\Anaconda3\envs\qm-tools\lib\share\psi4\basis\aug-cc-pvdz.gbs 
    atoms 2-3, 5-6 entry H          line    40 file C:\Users\64292\Anaconda3\envs\qm-tools\lib\share\psi4\basis\aug-cc-pvdz.gbs 


         ---------------------------------------------------------
                                   SCF
               by Justin Turney, Rob Parrish, Andy Simmonett
                          and Daniel G. A. Smith
                              RHF Reference
                        1 Threads,    476 MiB Core
         ---------------------------------------------------------

  ==> Geometry <==

    Molecular point group: c1
    Full point group: C1

    Geometry (in Bohr), charge = 0, multiplicity = 1:

       Center              X                  Y                   Z               Mass       
    ------------   -----------------  -----------------  -----------------  -----------------
         O            0.000000000000    -0.051183389256    -3.116050043131    15.994914619570
         H            0.000000000000    -0.051183389256    -1.226323917674     1.007825032230
         H            0.000000000000     1.778185228229    -3.589838277049     1.007825032230
         O            0.000000000000    -0.051183389256     2.931073558334    15.994914619570
         H            1.157216190245     1.106032800989     3.875936621063     1.007825032230
         H           -1.157216190245    -1.208399579500     3.875936621063     1.007825032230

  Running in c1 symmetry.

  Rotational constants: A =      7.04515  B =      0.17769  C =      0.17447 [cm^-1]
  Rotational constants: A = 211208.36802  B =   5327.06239  C =   5230.60530 [MHz]
  Nuclear repulsion =   34.119126832318400

  Charge       = 0
  Multiplicity = 1
  Electrons    = 20
  Nalpha       = 10
  Nbeta        = 10

  ==> Algorithm <==

  SCF Algorithm Type is DF.
  DIIS enabled.
  MOM disabled.
  Fractional occupation disabled.
  Guess Type is SAD.
  Energy threshold   = 1.00e-06
  Density threshold  = 1.00e-06
  Integral threshold = 1.00e-12

  ==> Primary Basis <==

  Basis Set: AUG-CC-PVDZ
    Blend: AUG-CC-PVDZ
    Number of shells: 38
    Number of basis functions: 82
    Number of Cartesian functions: 86
    Spherical Harmonics?: true
    Max angular momentum: 2

   => Loading Basis Set <=

    Name: (AUG-CC-PVDZ AUX)
    Role: JKFIT
    Keyword: DF_BASIS_SCF
    atoms 1, 4     entry O          line   270 file C:\Users\64292\Anaconda3\envs\qm-tools\lib\share\psi4\basis\aug-cc-pvdz-jkfit.gbs 
    atoms 2-3, 5-6 entry H          line    70 file C:\Users\64292\Anaconda3\envs\qm-tools\lib\share\psi4\basis\aug-cc-pvdz-jkfit.gbs 

  ==> Integral Setup <==

  DFHelper Memory: AOs need 0.017 GiB; user supplied 0.349 GiB. Using in-core AOs.

  ==> MemDFJK: Density-Fitted J/K Matrices <==

    J tasked:                   Yes
    K tasked:                   Yes
    wK tasked:                   No
    OpenMP threads:               1
    Memory [MiB]:               357
    Algorithm:                 Core
    Schwarz Cutoff:           1E-12
    Mask sparsity (%):       0.0000
    Fitting Condition:        1E-10

   => Auxiliary Basis Set <=

  Basis Set: (AUG-CC-PVDZ AUX)
    Blend: AUG-CC-PVDZ-JKFIT
    Number of shells: 104
    Number of basis functions: 300
    Number of Cartesian functions: 342
    Spherical Harmonics?: true
    Max angular momentum: 3

  Minimum eigenvalue in the overlap matrix is 2.1209845519E-03.
  Reciprocal condition number of the overlap matrix is 2.9977810816E-04.
    Using symmetric orthogonalization.

  ==> Pre-Iterations <==

  SCF Guess: Superposition of Atomic Densities via on-the-fly atomic UHF (no occupation information).

   -------------------------
    Irrep   Nso     Nmo    
   -------------------------
     A         82      82 
   -------------------------
    Total      82      82
   -------------------------

  ==> Iterations <==

                           Total Energy        Delta E     RMS |[F,P]|

   @DF-RHF iter SAD:  -150.86138266134043   -1.50861e+02   0.00000e+00 
   @DF-RHF iter   1:  -151.91085715226055   -1.04947e+00   7.57149e-03 DIIS/ADIIS
   @DF-RHF iter   2:  -152.01093770070301   -1.00081e-01   5.01794e-03 DIIS/ADIIS
   @DF-RHF iter   3:  -152.07059943704553   -5.96617e-02   4.08740e-04 DIIS/ADIIS
   @DF-RHF iter   4:  -152.07154976049341   -9.50323e-04   8.99229e-05 DIIS
   @DF-RHF iter   5:  -152.07160641695697   -5.66565e-05   2.62529e-05 DIIS
   @DF-RHF iter   6:  -152.07161174465267   -5.32770e-06   1.19979e-05 DIIS
   @DF-RHF iter   7:  -152.07161243702762   -6.92375e-07   2.61459e-06 DIIS
   @DF-RHF iter   8:  -152.07161250540528   -6.83777e-08   4.50622e-07 DIIS
  Energy and wave function converged.


  ==> Post-Iterations <==

    Orbital Energies [Eh]
    ---------------------

    Doubly Occupied:                                                      

       1A    -20.597193     2A    -20.556090     3A     -1.348600  
       4A     -1.309161     5A     -0.742792     6A     -0.673008  
       7A     -0.578845     8A     -0.546330     9A     -0.523303  
      10A     -0.479864  

    Virtual:                                                              

      11A      0.026161    12A      0.050000    13A      0.057203  
      14A      0.089249    15A      0.174885    16A      0.182150  
      17A      0.197266    18A      0.213155    19A      0.229346  
      20A      0.235241    21A      0.246761    22A      0.273554  
      23A      0.299322    24A      0.309348    25A      0.347062  
      26A      0.363551    27A      0.403499    28A      0.422616  
      29A      0.437120    30A      0.472594    31A      0.515462  
      32A      0.532580    33A      0.536805    34A      0.584725  
      35A      0.629370    36A      0.649224    37A      0.666041  
      38A      0.776749    39A      0.844337    40A      0.861230  
      41A      0.916215    42A      0.986837    43A      1.080109  
      44A      1.126329    45A      1.136511    46A      1.176326  
      47A      1.196423    48A      1.219436    49A      1.337210  
      50A      1.425987    51A      1.460127    52A      1.496935  
      53A      1.520815    54A      1.589945    55A      1.615768  
      56A      1.932484    57A      1.957145    58A      2.015652  
      59A      2.024502    60A      2.030361    61A      2.043749  
      62A      2.118094    63A      2.343723    64A      2.384964  
      65A      2.432705    66A      2.474775    67A      2.510614  
      68A      2.693744    69A      2.753191    70A      2.775962  
      71A      2.945077    72A      3.014701    73A      3.655290  
      74A      3.678963    75A      3.702411    76A      3.735282  
      77A      3.756902    78A      3.760704    79A      4.064937  
      80A      4.122215    81A      4.168588    82A      4.315703  

    Final Occupation by Irrep:
              A 
    DOCC [    10 ]

  @DF-RHF Final Energy:  -152.07161250540528

   => Energetics <=

    Nuclear Repulsion Energy =             34.1191268323184005
    One-Electron Energy =                -277.6710866419217041
    Two-Electron Energy =                  91.4803473041980340
    Total Energy =                       -152.0716125054052839

Computation Completed


Properties will be evaluated at   0.000000,   0.000000,   0.000000 [a0]

Properties computed using the SCF density matrix


 Multipole Moments:

 ------------------------------------------------------------------------------------
     Multipole            Electronic (a.u.)      Nuclear  (a.u.)        Total (a.u.)
 ------------------------------------------------------------------------------------

 L = 1.  Multiply by 2.5417464519 to convert [e a0] to [Debye]
 Dipole X            :         -0.0012331           -0.0000000           -0.0012331
 Dipole Y            :         -0.1953388            0.8057008            0.6103620
 Dipole Z            :         -0.0942556            1.4558992            1.3616435
 Magnitude           :                                                    1.4921851

 ------------------------------------------------------------------------------------

*** tstop() called on Lenovo-Y540-Zoha at Tue Sep 27 18:46:15 2022
Module time:
	user time   =        nan seconds =        nan minutes
	system time =        nan seconds =        nan minutes
	total time  =          0 seconds =       0.00 minutes
Total time:
	user time   =        nan seconds =        nan minutes
	system time =        nan seconds =        nan minutes
	total time  =       1194 seconds =      19.90 minutes

    Psi4 stopped on: Tuesday, 27 September 2022 06:46PM
    Psi4 wall time for execution: 0:00:01.07


  //>>>>>>>>>>>>>>>>>>>>>>>>>>>>>>>>>>>//
  //          ManyBody Results         //
  //<<<<<<<<<<<<<<<<<<<<<<<<<<<<<<<<<<<//


   ==> N-Body: Counterpoise Corrected (CP) energies <==

        n-Body     Total Energy            Interaction Energy                          N-body Contribution to Interaction Energy
                   [Eh]                    [Eh]                  [kcal/mol]            [Eh]                  [kcal/mol]
             1  N/A                         0.000000000000        0.000000000000        0.000000000000        0.000000000000
  FULL/RTN   2  N/A                        -0.006004998724       -3.768193589186       -0.006004998724       -3.768193589186

