
Scratch directory: C:\Users\64292\AppData\Local\Temp/

  //>>>>>>>>>>>>>>>>>>>>>>>>>>>>>>>>>>>>>//
  // ManyBody Setup: N-Body Levels [1, 2]//
  //<<<<<<<<<<<<<<<<<<<<<<<<<<<<<<<<<<<<<//

        Number of 1-body computations:     2
        Number of 2-body computations:     1

    -----------------------------------------------------------------------
          Psi4: An Open-Source Ab Initio Electronic Structure Package
                               Psi4 1.6.1 release

                         Git: Rev {HEAD} 5b9f6e3 


    D. G. A. Smith, L. A. Burns, A. C. Simmonett, R. M. Parrish,
    M. C. Schieber, R. Galvelis, P. Kraus, H. Kruse, R. Di Remigio,
    A. Alenaizan, A. M. James, S. Lehtola, J. P. Misiewicz, M. Scheurer,
    R. A. Shaw, J. B. Schriber, Y. Xie, Z. L. Glick, D. A. Sirianni,
    J. S. O'Brien, J. M. Waldrop, A. Kumar, E. G. Hohenstein,
    B. P. Pritchard, B. R. Brooks, H. F. Schaefer III, A. Yu. Sokolov,
    K. Patkowski, A. E. DePrince III, U. Bozkaya, R. A. King,
    F. A. Evangelista, J. M. Turney, T. D. Crawford, C. D. Sherrill,
    J. Chem. Phys. 152(18) 184108 (2020). https://doi.org/10.1063/5.0006002

                            Additional Code Authors
    E. T. Seidl, C. L. Janssen, E. F. Valeev, M. L. Leininger,
    J. F. Gonthier, R. M. Richard, H. R. McAlexander, M. Saitow, X. Wang,
    P. Verma, M. H. Lechner, and A. Jiang

             Previous Authors, Complete List of Code Contributors,
                       and Citations for Specific Modules
    https://github.com/psi4/psi4/blob/master/codemeta.json
    https://github.com/psi4/psi4/graphs/contributors
    http://psicode.org/psi4manual/master/introduction.html#citing-psifour

    -----------------------------------------------------------------------


    Psi4 started on: Tuesday, 27 September 2022 06:25PM

    Process ID: 10544
    Host:       Lenovo-Y540-Zoha
    PSIDATADIR: C:\Users\64292\Anaconda3\envs\qm-tools\lib\share\psi4
    Memory:     476.8 MiB
    Threads:    1
    
  ==> Input QCSchema <==

--------------------------------------------------------------------------
{'driver': 'energy',
 'extras': {'psiapi': True, 'wfn_qcvars_only': True},
 'id': None,
 'keywords': {'function_kwargs': {}},
 'model': {'basis': 'aug-cc-pvdz', 'method': 'scf'},
 'molecule': {'atom_labels': ['1', '2', '3', '5', '6', '7'],
              'atomic_numbers': [8, 1, 1, 8, 1, 1],
              'fix_com': True,
              'fix_orientation': True,
              'fragment_charges': [0.0, 0.0],
              'fragment_multiplicities': [1, 1],
              'fragments': [[0, 1, 2], [3, 4, 5]],
              'geometry': [0.0511833892557548, 3.116050043131342, 0.0, 0.0511833892557548, 1.226323917673514, 0.0,
                           -1.7781852282291912, 3.5898382770492736, 0.0, 0.0511833892557548, -2.9310735583337073, 0.0,
                           0.0511833892557548, -3.875936621062623, 1.6365508308416183, 0.0511833892557548,
                           -3.875936621062623, -1.6365508308416183],
              'mass_numbers': [16, 1, 1, 16, 1, 1],
              'masses': [15.99491461957, 1.00782503223, 1.00782503223, 15.99491461957, 1.00782503223, 1.00782503223],
              'molecular_charge': 0.0,
              'molecular_multiplicity': 1,
              'name': 'H4O2',
              'provenance': {'creator': 'QCElemental',
                             'routine': 'qcelemental.molparse.from_string',
                             'version': 'v0.25.0'},
              'real': [False, False, False, True, True, True],
              'schema_name': 'qcschema_molecule',
              'schema_version': 2,
              'symbols': ['O', 'H', 'H', 'O', 'H', 'H'],
              'validated': True},
 'protocols': {'stdout': True},
 'provenance': {'creator': 'QCElemental', 'routine': 'qcelemental.models.results', 'version': 'v0.25.0'},
 'schema_name': 'qcschema_input',
 'schema_version': 1}
--------------------------------------------------------------------------

Scratch directory: C:\Users\64292\AppData\Local\Temp/

*** tstart() called on Lenovo-Y540-Zoha
*** at Tue Sep 27 18:46:01 2022

   => Loading Basis Set <=

    Name: AUG-CC-PVDZ
    Role: ORBITAL
    Keyword: BASIS
    atoms 1, 4     entry O          line   254 file C:\Users\64292\Anaconda3\envs\qm-tools\lib\share\psi4\basis\aug-cc-pvdz.gbs 
    atoms 2-3, 5-6 entry H          line    40 file C:\Users\64292\Anaconda3\envs\qm-tools\lib\share\psi4\basis\aug-cc-pvdz.gbs 


         ---------------------------------------------------------
                                   SCF
               by Justin Turney, Rob Parrish, Andy Simmonett
                          and Daniel G. A. Smith
                              RHF Reference
                        1 Threads,    476 MiB Core
         ---------------------------------------------------------

  ==> Geometry <==

    Molecular point group: cs
    Full point group: Cs

    Geometry (in Bohr), charge = 0, multiplicity = 1:

       Center              X                  Y                   Z               Mass       
    ------------   -----------------  -----------------  -----------------  -----------------
      Gh(O)           0.051183389256     3.116050043131     0.000000000000    15.994914619570
      Gh(H)           0.051183389256     1.226323917674     0.000000000000     1.007825032230
      Gh(H)          -1.778185228229     3.589838277049     0.000000000000     1.007825032230
         O            0.051183389256    -2.931073558334     0.000000000000    15.994914619570
         H            0.051183389256    -3.875936621063     1.636550830842     1.007825032230
         H            0.051183389256    -3.875936621063    -1.636550830842     1.007825032230

  Running in cs symmetry.

  Rotational constants: A =      7.04427  B =      0.17665  C =      0.17549 [cm^-1]
  Rotational constants: A = 211181.81252  B =   5295.83520  C =   5261.08223 [MHz]
  Nuclear repulsion =    8.772355975749337

  Charge       = 0
  Multiplicity = 1
  Electrons    = 10
  Nalpha       = 5
  Nbeta        = 5

  ==> Algorithm <==

  SCF Algorithm Type is DF.
  DIIS enabled.
  MOM disabled.
  Fractional occupation disabled.
  Guess Type is SAD.
  Energy threshold   = 1.00e-06
  Density threshold  = 1.00e-06
  Integral threshold = 1.00e-12

  ==> Primary Basis <==

  Basis Set: AUG-CC-PVDZ
    Blend: AUG-CC-PVDZ
    Number of shells: 38
    Number of basis functions: 82
    Number of Cartesian functions: 86
    Spherical Harmonics?: true
    Max angular momentum: 2

   => Loading Basis Set <=

    Name: (AUG-CC-PVDZ AUX)
    Role: JKFIT
    Keyword: DF_BASIS_SCF
    atoms 1, 4     entry O          line   270 file C:\Users\64292\Anaconda3\envs\qm-tools\lib\share\psi4\basis\aug-cc-pvdz-jkfit.gbs 
    atoms 2-3, 5-6 entry H          line    70 file C:\Users\64292\Anaconda3\envs\qm-tools\lib\share\psi4\basis\aug-cc-pvdz-jkfit.gbs 

  ==> Integral Setup <==

  DFHelper Memory: AOs need 0.017 GiB; user supplied 0.349 GiB. Using in-core AOs.

  ==> MemDFJK: Density-Fitted J/K Matrices <==

    J tasked:                   Yes
    K tasked:                   Yes
    wK tasked:                   No
    OpenMP threads:               1
    Memory [MiB]:               357
    Algorithm:                 Core
    Schwarz Cutoff:           1E-12
    Mask sparsity (%):       0.0000
    Fitting Condition:        1E-10

   => Auxiliary Basis Set <=

  Basis Set: (AUG-CC-PVDZ AUX)
    Blend: AUG-CC-PVDZ-JKFIT
    Number of shells: 104
    Number of basis functions: 300
    Number of Cartesian functions: 342
    Spherical Harmonics?: true
    Max angular momentum: 3

  Minimum eigenvalue in the overlap matrix is 2.1607698576E-03.
  Reciprocal condition number of the overlap matrix is 3.3491164242E-04.
    Using symmetric orthogonalization.

  ==> Pre-Iterations <==

  SCF Guess: Superposition of Atomic Densities via on-the-fly atomic UHF (no occupation information).

   -------------------------
    Irrep   Nso     Nmo    
   -------------------------
     A'        55      55 
     A"        27      27 
   -------------------------
    Total      82      82
   -------------------------

  ==> Iterations <==

                           Total Energy        Delta E     RMS |[F,P]|

   @DF-RHF iter SAD:   -75.40236282507567   -7.54024e+01   0.00000e+00 
   @DF-RHF iter   1:   -75.94509402473955   -5.42731e-01   7.37218e-03 DIIS/ADIIS
   @DF-RHF iter   2:   -75.99627930705140   -5.11853e-02   4.99246e-03 DIIS/ADIIS
   @DF-RHF iter   3:   -76.02936170463735   -3.30824e-02   3.82728e-04 DIIS/ADIIS
   @DF-RHF iter   4:   -76.02984219076606   -4.80486e-04   8.92036e-05 DIIS
   @DF-RHF iter   5:   -76.02987476231044   -3.25715e-05   2.18252e-05 DIIS
   @DF-RHF iter   6:   -76.02987784304665   -3.08074e-06   4.67721e-06 DIIS
   @DF-RHF iter   7:   -76.02987799784043   -1.54794e-07   8.58174e-07 DIIS
  Energy and wave function converged.


  ==> Post-Iterations <==

    Orbital Energies [Eh]
    ---------------------

    Doubly Occupied:                                                      

       1Ap   -20.575765     2Ap    -1.325841     1App   -0.721187  
       3Ap    -0.548243     4Ap    -0.500691  

    Virtual:                                                              

       5Ap     0.032651     6Ap     0.053941     2App    0.055755  
       7Ap     0.079651     8Ap     0.168004     3App    0.168377  
       9Ap     0.181342    10Ap     0.197468    11Ap     0.210510  
       4App    0.226332    12Ap     0.235081    13Ap     0.253989  
       5App    0.312938    14Ap     0.326897     6App    0.373162  
      15Ap     0.396600    16Ap     0.429283     7App    0.452651  
      17Ap     0.459475    18Ap     0.504914     8App    0.522091  
      19Ap     0.528424     9App    0.545161    20Ap     0.561240  
      21Ap     0.606421    10App    0.653393    22Ap     0.654842  
      23Ap     0.696504    11App    0.851100    24Ap     0.879057  
      25Ap     0.928921    12App    0.946076    26Ap     1.127773  
      13App    1.146347    27Ap     1.167887    28Ap     1.198015  
      29Ap     1.241978    30Ap     1.279290    14App    1.333446  
      31Ap     1.365871    15App    1.386628    32Ap     1.428108  
      33Ap     1.466949    34Ap     1.542621    16App    1.566361  
      35Ap     1.863882    17App    1.985277    36Ap     2.050645  
      18App    2.054073    37Ap     2.085031    38Ap     2.269155  
      19App    2.364807    20App    2.405231    39Ap     2.454219  
      21App    2.471565    40Ap     2.526885    41Ap     2.577237  
      42Ap     2.717438    22App    2.783319    43Ap     2.918396  
      44Ap     3.422031    23App    3.700857    45Ap     3.700899  
      46Ap     3.806631    47Ap     3.903674    48Ap     4.076814  
      49Ap     4.144614    24App    4.182285    25App    4.911215  
      50Ap     4.956400    26App    4.999616    51Ap     5.162847  
      52Ap     5.481129    27App    5.671591    53Ap     6.415236  
      54Ap     6.849168    55Ap    33.567646  

    Final Occupation by Irrep:
             Ap   App 
    DOCC [     4,    1 ]

  @DF-RHF Final Energy:   -76.02987799784043

   => Energetics <=

    Nuclear Repulsion Energy =              8.7723559757493366
    One-Electron Energy =                -122.2609778564744261
    Two-Electron Energy =                  37.4587438828846615
    Total Energy =                        -76.0298779978404298

Computation Completed


Properties will be evaluated at   0.000000,   0.000000,   0.000000 [a0]

Properties computed using the SCF density matrix


 Multipole Moments:

 ------------------------------------------------------------------------------------
     Multipole            Electronic (a.u.)      Nuclear  (a.u.)        Total (a.u.)
 ------------------------------------------------------------------------------------

 L = 1.  Multiply by 2.5417464519 to convert [e a0] to [Debye]
 Dipole X            :         -0.5116329            0.5118339            0.0002010
 Dipole Y            :         30.5141987          -31.2004617           -0.6862630
 Dipole Z            :          0.0000000            0.0000000            0.0000000
 Magnitude           :                                                    0.6862630

 ------------------------------------------------------------------------------------

*** tstop() called on Lenovo-Y540-Zoha at Tue Sep 27 18:46:02 2022
Module time:
	user time   =        nan seconds =        nan minutes
	system time =        nan seconds =        nan minutes
	total time  =          1 seconds =       0.02 minutes
Total time:
	user time   =        nan seconds =        nan minutes
	system time =        nan seconds =        nan minutes
	total time  =       1181 seconds =      19.68 minutes

    Psi4 stopped on: Tuesday, 27 September 2022 06:46PM
    Psi4 wall time for execution: 0:00:01.03


    -----------------------------------------------------------------------
          Psi4: An Open-Source Ab Initio Electronic Structure Package
                               Psi4 1.6.1 release

                         Git: Rev {HEAD} 5b9f6e3 


    D. G. A. Smith, L. A. Burns, A. C. Simmonett, R. M. Parrish,
    M. C. Schieber, R. Galvelis, P. Kraus, H. Kruse, R. Di Remigio,
    A. Alenaizan, A. M. James, S. Lehtola, J. P. Misiewicz, M. Scheurer,
    R. A. Shaw, J. B. Schriber, Y. Xie, Z. L. Glick, D. A. Sirianni,
    J. S. O'Brien, J. M. Waldrop, A. Kumar, E. G. Hohenstein,
    B. P. Pritchard, B. R. Brooks, H. F. Schaefer III, A. Yu. Sokolov,
    K. Patkowski, A. E. DePrince III, U. Bozkaya, R. A. King,
    F. A. Evangelista, J. M. Turney, T. D. Crawford, C. D. Sherrill,
    J. Chem. Phys. 152(18) 184108 (2020). https://doi.org/10.1063/5.0006002

                            Additional Code Authors
    E. T. Seidl, C. L. Janssen, E. F. Valeev, M. L. Leininger,
    J. F. Gonthier, R. M. Richard, H. R. McAlexander, M. Saitow, X. Wang,
    P. Verma, M. H. Lechner, and A. Jiang

             Previous Authors, Complete List of Code Contributors,
                       and Citations for Specific Modules
    https://github.com/psi4/psi4/blob/master/codemeta.json
    https://github.com/psi4/psi4/graphs/contributors
    http://psicode.org/psi4manual/master/introduction.html#citing-psifour

    -----------------------------------------------------------------------


    Psi4 started on: Tuesday, 27 September 2022 06:25PM

    Process ID: 10544
    Host:       Lenovo-Y540-Zoha
    PSIDATADIR: C:\Users\64292\Anaconda3\envs\qm-tools\lib\share\psi4
    Memory:     476.8 MiB
    Threads:    1
    
  ==> Input QCSchema <==

--------------------------------------------------------------------------
{'driver': 'energy',
 'extras': {'psiapi': True, 'wfn_qcvars_only': True},
 'id': None,
 'keywords': {'function_kwargs': {}},
 'model': {'basis': 'aug-cc-pvdz', 'method': 'scf'},
 'molecule': {'atom_labels': ['1', '2', '3', '5', '6', '7'],
              'atomic_numbers': [8, 1, 1, 8, 1, 1],
              'fix_com': True,
              'fix_orientation': True,
              'fragment_charges': [0.0, 0.0],
              'fragment_multiplicities': [1, 1],
              'fragments': [[0, 1, 2], [3, 4, 5]],
              'geometry': [0.0511833892557548, 3.116050043131342, 0.0, 0.0511833892557548, 1.226323917673514, 0.0,
                           -1.7781852282291912, 3.5898382770492736, 0.0, 0.0511833892557548, -2.9310735583337073, 0.0,
                           0.0511833892557548, -3.875936621062623, 1.6365508308416183, 0.0511833892557548,
                           -3.875936621062623, -1.6365508308416183],
              'mass_numbers': [16, 1, 1, 16, 1, 1],
              'masses': [15.99491461957, 1.00782503223, 1.00782503223, 15.99491461957, 1.00782503223, 1.00782503223],
              'molecular_charge': 0.0,
              'molecular_multiplicity': 1,
              'name': 'H4O2',
              'provenance': {'creator': 'QCElemental',
                             'routine': 'qcelemental.molparse.from_string',
                             'version': 'v0.25.0'},
              'real': [True, True, True, False, False, False],
              'schema_name': 'qcschema_molecule',
              'schema_version': 2,
              'symbols': ['O', 'H', 'H', 'O', 'H', 'H'],
              'validated': True},
 'protocols': {'stdout': True},
 'provenance': {'creator': 'QCElemental', 'routine': 'qcelemental.models.results', 'version': 'v0.25.0'},
 'schema_name': 'qcschema_input',
 'schema_version': 1}
--------------------------------------------------------------------------

Scratch directory: C:\Users\64292\AppData\Local\Temp/

*** tstart() called on Lenovo-Y540-Zoha
*** at Tue Sep 27 18:46:03 2022

   => Loading Basis Set <=

    Name: AUG-CC-PVDZ
    Role: ORBITAL
    Keyword: BASIS
    atoms 1, 4     entry O          line   254 file C:\Users\64292\Anaconda3\envs\qm-tools\lib\share\psi4\basis\aug-cc-pvdz.gbs 
    atoms 2-3, 5-6 entry H          line    40 file C:\Users\64292\Anaconda3\envs\qm-tools\lib\share\psi4\basis\aug-cc-pvdz.gbs 


         ---------------------------------------------------------
                                   SCF
               by Justin Turney, Rob Parrish, Andy Simmonett
                          and Daniel G. A. Smith
                              RHF Reference
                        1 Threads,    476 MiB Core
         ---------------------------------------------------------

  ==> Geometry <==

    Molecular point group: cs
    Full point group: Cs

    Geometry (in Bohr), charge = 0, multiplicity = 1:

       Center              X                  Y                   Z               Mass       
    ------------   -----------------  -----------------  -----------------  -----------------
         O            0.051183389256     3.116050043131     0.000000000000    15.994914619570
         H            0.051183389256     1.226323917674     0.000000000000     1.007825032230
         H           -1.778185228229     3.589838277049     0.000000000000     1.007825032230
      Gh(O)           0.051183389256    -2.931073558334     0.000000000000    15.994914619570
      Gh(H)           0.051183389256    -3.875936621063     1.636550830842     1.007825032230
      Gh(H)           0.051183389256    -3.875936621063    -1.636550830842     1.007825032230

  Running in cs symmetry.

  Rotational constants: A =      7.04427  B =      0.17665  C =      0.17549 [cm^-1]
  Rotational constants: A = 211181.81252  B =   5295.83520  C =   5261.08223 [MHz]
  Nuclear repulsion =    8.801420354575150

  Charge       = 0
  Multiplicity = 1
  Electrons    = 10
  Nalpha       = 5
  Nbeta        = 5

  ==> Algorithm <==

  SCF Algorithm Type is DF.
  DIIS enabled.
  MOM disabled.
  Fractional occupation disabled.
  Guess Type is SAD.
  Energy threshold   = 1.00e-06
  Density threshold  = 1.00e-06
  Integral threshold = 1.00e-12

  ==> Primary Basis <==

  Basis Set: AUG-CC-PVDZ
    Blend: AUG-CC-PVDZ
    Number of shells: 38
    Number of basis functions: 82
    Number of Cartesian functions: 86
    Spherical Harmonics?: true
    Max angular momentum: 2

   => Loading Basis Set <=

    Name: (AUG-CC-PVDZ AUX)
    Role: JKFIT
    Keyword: DF_BASIS_SCF
    atoms 1, 4     entry O          line   270 file C:\Users\64292\Anaconda3\envs\qm-tools\lib\share\psi4\basis\aug-cc-pvdz-jkfit.gbs 
    atoms 2-3, 5-6 entry H          line    70 file C:\Users\64292\Anaconda3\envs\qm-tools\lib\share\psi4\basis\aug-cc-pvdz-jkfit.gbs 

  ==> Integral Setup <==

  DFHelper Memory: AOs need 0.017 GiB; user supplied 0.349 GiB. Using in-core AOs.

  ==> MemDFJK: Density-Fitted J/K Matrices <==

    J tasked:                   Yes
    K tasked:                   Yes
    wK tasked:                   No
    OpenMP threads:               1
    Memory [MiB]:               357
    Algorithm:                 Core
    Schwarz Cutoff:           1E-12
    Mask sparsity (%):       0.0000
    Fitting Condition:        1E-10

   => Auxiliary Basis Set <=

  Basis Set: (AUG-CC-PVDZ AUX)
    Blend: AUG-CC-PVDZ-JKFIT
    Number of shells: 104
    Number of basis functions: 300
    Number of Cartesian functions: 342
    Spherical Harmonics?: true
    Max angular momentum: 3

  Minimum eigenvalue in the overlap matrix is 2.1607698576E-03.
  Reciprocal condition number of the overlap matrix is 3.3491164242E-04.
    Using symmetric orthogonalization.

  ==> Pre-Iterations <==

  SCF Guess: Superposition of Atomic Densities via on-the-fly atomic UHF (no occupation information).

   -------------------------
    Irrep   Nso     Nmo    
   -------------------------
     A'        55      55 
     A"        27      27 
   -------------------------
    Total      82      82
   -------------------------

  ==> Iterations <==

                           Total Energy        Delta E     RMS |[F,P]|

   @DF-RHF iter SAD:   -75.41487092955276   -7.54149e+01   0.00000e+00 
   @DF-RHF iter   1:   -75.94941395703354   -5.34543e-01   7.36824e-03 DIIS/ADIIS
   @DF-RHF iter   2:   -76.00129289602650   -5.18789e-02   5.05236e-03 DIIS/ADIIS
   @DF-RHF iter   3:   -76.03523812504700   -3.39452e-02   3.84876e-04 DIIS/ADIIS
   @DF-RHF iter   4:   -76.03570095626075   -4.62831e-04   8.82502e-05 DIIS
   @DF-RHF iter   5:   -76.03573109797712   -3.01417e-05   2.09438e-05 DIIS
   @DF-RHF iter   6:   -76.03573367732299   -2.57935e-06   4.13867e-06 DIIS
   @DF-RHF iter   7:   -76.03573378072704   -1.03404e-07   6.74387e-07 DIIS
  Energy and wave function converged.


  ==> Post-Iterations <==

    Orbital Energies [Eh]
    ---------------------

    Doubly Occupied:                                                      

       1Ap   -20.584248     2Ap    -1.335637     3Ap    -0.696495  
       4Ap    -0.577369     1App   -0.506076  

    Virtual:                                                              

       5Ap     0.024715     6Ap     0.049964     2App    0.057843  
       7Ap     0.077806     8Ap     0.133886     9Ap     0.150661  
       3App    0.185459    10Ap     0.186892     4App    0.219380  
      11Ap     0.224001    12Ap     0.228189    13Ap     0.266426  
      14Ap     0.324946    15Ap     0.362011     5App    0.367262  
      16Ap     0.379247     6App    0.402230    17Ap     0.416506  
       7App    0.421356    18Ap     0.465264    19Ap     0.487940  
       8App    0.500629    20Ap     0.527431     9App    0.533849  
      21Ap     0.558782    10App    0.607344    22Ap     0.647278  
      23Ap     0.734514    24Ap     0.828978    25Ap     0.906160  
      26Ap     0.957187    27Ap     1.045023    11App    1.105678  
      28Ap     1.145877    12App    1.169173    29Ap     1.194080  
      13App    1.200085    30Ap     1.276769    14App    1.299347  
      31Ap     1.306443    15App    1.333551    32Ap     1.348299  
      33Ap     1.422758    34Ap     1.489842    16App    1.557219  
      35Ap     1.703356    36Ap     1.986222    17App    1.991984  
      37Ap     2.066834    18App    2.080354    19App    2.343639  
      38Ap     2.371488    20App    2.380558    21App    2.397029  
      39Ap     2.397469    40Ap     2.432182    41Ap     2.584915  
      42Ap     2.716295    43Ap     2.875221    44Ap     2.984565  
      45Ap     3.394123    22App    3.675338    46Ap     3.701777  
      23App    3.725896    47Ap     3.919003    24App    3.945389  
      48Ap     4.035769    49Ap     4.261126    50Ap     4.894409  
      25App    4.940573    51Ap     5.035562    26App    5.324727  
      52Ap     5.326670    53Ap     5.584585    54Ap     6.310833  
      27App    6.810675    55Ap    33.527699  

    Final Occupation by Irrep:
             Ap   App 
    DOCC [     4,    1 ]

  @DF-RHF Final Energy:   -76.03573378072704

   => Energetics <=

    Nuclear Repulsion Energy =              8.8014203545751499
    One-Electron Energy =                -122.2746362451749746
    Two-Electron Energy =                  37.4374821098727821
    Total Energy =                        -76.0357337807270426

Computation Completed


Properties will be evaluated at   0.000000,   0.000000,   0.000000 [a0]

Properties computed using the SCF density matrix


 Multipole Moments:

 ------------------------------------------------------------------------------------
     Multipole            Electronic (a.u.)      Nuclear  (a.u.)        Total (a.u.)
 ------------------------------------------------------------------------------------

 L = 1.  Multiply by 2.5417464519 to convert [e a0] to [Debye]
 Dipole X            :          0.6854204           -1.3175347           -0.6321143
 Dipole Y            :        -30.2336520           29.7445625           -0.4890894
 Dipole Z            :          0.0000000            0.0000000            0.0000000
 Magnitude           :                                                    0.7992352

 ------------------------------------------------------------------------------------

*** tstop() called on Lenovo-Y540-Zoha at Tue Sep 27 18:46:03 2022
Module time:
	user time   =        nan seconds =        nan minutes
	system time =        nan seconds =        nan minutes
	total time  =          0 seconds =       0.00 minutes
Total time:
	user time   =        nan seconds =        nan minutes
	system time =        nan seconds =        nan minutes
	total time  =       1182 seconds =      19.70 minutes

    Psi4 stopped on: Tuesday, 27 September 2022 06:46PM
    Psi4 wall time for execution: 0:00:01.05


    -----------------------------------------------------------------------
          Psi4: An Open-Source Ab Initio Electronic Structure Package
                               Psi4 1.6.1 release

                         Git: Rev {HEAD} 5b9f6e3 


    D. G. A. Smith, L. A. Burns, A. C. Simmonett, R. M. Parrish,
    M. C. Schieber, R. Galvelis, P. Kraus, H. Kruse, R. Di Remigio,
    A. Alenaizan, A. M. James, S. Lehtola, J. P. Misiewicz, M. Scheurer,
    R. A. Shaw, J. B. Schriber, Y. Xie, Z. L. Glick, D. A. Sirianni,
    J. S. O'Brien, J. M. Waldrop, A. Kumar, E. G. Hohenstein,
    B. P. Pritchard, B. R. Brooks, H. F. Schaefer III, A. Yu. Sokolov,
    K. Patkowski, A. E. DePrince III, U. Bozkaya, R. A. King,
    F. A. Evangelista, J. M. Turney, T. D. Crawford, C. D. Sherrill,
    J. Chem. Phys. 152(18) 184108 (2020). https://doi.org/10.1063/5.0006002

                            Additional Code Authors
    E. T. Seidl, C. L. Janssen, E. F. Valeev, M. L. Leininger,
    J. F. Gonthier, R. M. Richard, H. R. McAlexander, M. Saitow, X. Wang,
    P. Verma, M. H. Lechner, and A. Jiang

             Previous Authors, Complete List of Code Contributors,
                       and Citations for Specific Modules
    https://github.com/psi4/psi4/blob/master/codemeta.json
    https://github.com/psi4/psi4/graphs/contributors
    http://psicode.org/psi4manual/master/introduction.html#citing-psifour

    -----------------------------------------------------------------------


    Psi4 started on: Tuesday, 27 September 2022 06:25PM

    Process ID: 10544
    Host:       Lenovo-Y540-Zoha
    PSIDATADIR: C:\Users\64292\Anaconda3\envs\qm-tools\lib\share\psi4
    Memory:     476.8 MiB
    Threads:    1
    
  ==> Input QCSchema <==

--------------------------------------------------------------------------
{'driver': 'energy',
 'extras': {'psiapi': True, 'wfn_qcvars_only': True},
 'id': None,
 'keywords': {'function_kwargs': {}},
 'model': {'basis': 'aug-cc-pvdz', 'method': 'scf'},
 'molecule': {'atom_labels': ['1', '2', '3', '5', '6', '7'],
              'atomic_numbers': [8, 1, 1, 8, 1, 1],
              'fix_com': True,
              'fix_orientation': True,
              'fragment_charges': [0.0, 0.0],
              'fragment_multiplicities': [1, 1],
              'fragments': [[0, 1, 2], [3, 4, 5]],
              'geometry': [0.0511833892557548, 3.116050043131342, 0.0, 0.0511833892557548, 1.226323917673514, 0.0,
                           -1.7781852282291912, 3.5898382770492736, 0.0, 0.0511833892557548, -2.9310735583337073, 0.0,
                           0.0511833892557548, -3.875936621062623, 1.6365508308416183, 0.0511833892557548,
                           -3.875936621062623, -1.6365508308416183],
              'mass_numbers': [16, 1, 1, 16, 1, 1],
              'masses': [15.99491461957, 1.00782503223, 1.00782503223, 15.99491461957, 1.00782503223, 1.00782503223],
              'molecular_charge': 0.0,
              'molecular_multiplicity': 1,
              'name': 'H4O2',
              'provenance': {'creator': 'QCElemental',
                             'routine': 'qcelemental.molparse.from_string',
                             'version': 'v0.25.0'},
              'real': [True, True, True, True, True, True],
              'schema_name': 'qcschema_molecule',
              'schema_version': 2,
              'symbols': ['O', 'H', 'H', 'O', 'H', 'H'],
              'validated': True},
 'protocols': {'stdout': True},
 'provenance': {'creator': 'QCElemental', 'routine': 'qcelemental.models.results', 'version': 'v0.25.0'},
 'schema_name': 'qcschema_input',
 'schema_version': 1}
--------------------------------------------------------------------------

Scratch directory: C:\Users\64292\AppData\Local\Temp/

*** tstart() called on Lenovo-Y540-Zoha
*** at Tue Sep 27 18:46:04 2022

   => Loading Basis Set <=

    Name: AUG-CC-PVDZ
    Role: ORBITAL
    Keyword: BASIS
    atoms 1, 4     entry O          line   254 file C:\Users\64292\Anaconda3\envs\qm-tools\lib\share\psi4\basis\aug-cc-pvdz.gbs 
    atoms 2-3, 5-6 entry H          line    40 file C:\Users\64292\Anaconda3\envs\qm-tools\lib\share\psi4\basis\aug-cc-pvdz.gbs 


         ---------------------------------------------------------
                                   SCF
               by Justin Turney, Rob Parrish, Andy Simmonett
                          and Daniel G. A. Smith
                              RHF Reference
                        1 Threads,    476 MiB Core
         ---------------------------------------------------------

  ==> Geometry <==

    Molecular point group: cs
    Full point group: Cs

    Geometry (in Bohr), charge = 0, multiplicity = 1:

       Center              X                  Y                   Z               Mass       
    ------------   -----------------  -----------------  -----------------  -----------------
         O            0.051183389256     3.116050043131     0.000000000000    15.994914619570
         H            0.051183389256     1.226323917674     0.000000000000     1.007825032230
         H           -1.778185228229     3.589838277049     0.000000000000     1.007825032230
         O            0.051183389256    -2.931073558334     0.000000000000    15.994914619570
         H            0.051183389256    -3.875936621063     1.636550830842     1.007825032230
         H            0.051183389256    -3.875936621063    -1.636550830842     1.007825032230

  Running in cs symmetry.

  Rotational constants: A =      7.04427  B =      0.17665  C =      0.17549 [cm^-1]
  Rotational constants: A = 211181.81252  B =   5295.83520  C =   5261.08223 [MHz]
  Nuclear repulsion =   34.118676815532318

  Charge       = 0
  Multiplicity = 1
  Electrons    = 20
  Nalpha       = 10
  Nbeta        = 10

  ==> Algorithm <==

  SCF Algorithm Type is DF.
  DIIS enabled.
  MOM disabled.
  Fractional occupation disabled.
  Guess Type is SAD.
  Energy threshold   = 1.00e-06
  Density threshold  = 1.00e-06
  Integral threshold = 1.00e-12

  ==> Primary Basis <==

  Basis Set: AUG-CC-PVDZ
    Blend: AUG-CC-PVDZ
    Number of shells: 38
    Number of basis functions: 82
    Number of Cartesian functions: 86
    Spherical Harmonics?: true
    Max angular momentum: 2

   => Loading Basis Set <=

    Name: (AUG-CC-PVDZ AUX)
    Role: JKFIT
    Keyword: DF_BASIS_SCF
    atoms 1, 4     entry O          line   270 file C:\Users\64292\Anaconda3\envs\qm-tools\lib\share\psi4\basis\aug-cc-pvdz-jkfit.gbs 
    atoms 2-3, 5-6 entry H          line    70 file C:\Users\64292\Anaconda3\envs\qm-tools\lib\share\psi4\basis\aug-cc-pvdz-jkfit.gbs 

  ==> Integral Setup <==

  DFHelper Memory: AOs need 0.017 GiB; user supplied 0.349 GiB. Using in-core AOs.

  ==> MemDFJK: Density-Fitted J/K Matrices <==

    J tasked:                   Yes
    K tasked:                   Yes
    wK tasked:                   No
    OpenMP threads:               1
    Memory [MiB]:               357
    Algorithm:                 Core
    Schwarz Cutoff:           1E-12
    Mask sparsity (%):       0.0000
    Fitting Condition:        1E-10

   => Auxiliary Basis Set <=

  Basis Set: (AUG-CC-PVDZ AUX)
    Blend: AUG-CC-PVDZ-JKFIT
    Number of shells: 104
    Number of basis functions: 300
    Number of Cartesian functions: 342
    Spherical Harmonics?: true
    Max angular momentum: 3

  Minimum eigenvalue in the overlap matrix is 2.1607698576E-03.
  Reciprocal condition number of the overlap matrix is 3.3491164242E-04.
    Using symmetric orthogonalization.

  ==> Pre-Iterations <==

  SCF Guess: Superposition of Atomic Densities via on-the-fly atomic UHF (no occupation information).

   -------------------------
    Irrep   Nso     Nmo    
   -------------------------
     A'        55      55 
     A"        27      27 
   -------------------------
    Total      82      82
   -------------------------

  ==> Iterations <==

                           Total Energy        Delta E     RMS |[F,P]|

   @DF-RHF iter SAD:  -150.86134822995473   -1.50861e+02   0.00000e+00 
   @DF-RHF iter   1:  -151.91111066890232   -1.04976e+00   1.01323e-02 DIIS/ADIIS
   @DF-RHF iter   2:  -152.01115781408870   -1.00047e-01   6.71651e-03 DIIS/ADIIS
   @DF-RHF iter   3:  -152.07079152903108   -5.96337e-02   5.68743e-04 DIIS/ADIIS
   @DF-RHF iter   4:  -152.07177287176373   -9.81343e-04   1.20046e-04 DIIS/ADIIS
   @DF-RHF iter   5:  -152.07182922727355   -5.63555e-05   3.50815e-05 DIIS
   @DF-RHF iter   6:  -152.07183453971135   -5.31244e-06   1.60365e-05 DIIS
   @DF-RHF iter   7:  -152.07183523070805   -6.90997e-07   3.50705e-06 DIIS
   @DF-RHF iter   8:  -152.07183529954204   -6.88340e-08   6.03491e-07 DIIS
  Energy and wave function converged.


  ==> Post-Iterations <==

    Orbital Energies [Eh]
    ---------------------

    Doubly Occupied:                                                      

       1Ap   -20.597239     2Ap   -20.556114     3Ap    -1.348613  
       4Ap    -1.309150     1App   -0.742729     5Ap    -0.672963  
       6Ap    -0.578850     7Ap    -0.546353     8Ap    -0.523216  
       2App   -0.479990  

    Virtual:                                                              

       9Ap     0.026423     3App    0.051541    10Ap     0.055499  
      11Ap     0.087818    12Ap     0.175059    13Ap     0.184245  
       4App    0.203495    14Ap     0.209436     5App    0.223350  
      15Ap     0.236267    16Ap     0.245973    17Ap     0.281129  
       6App    0.299581    18Ap     0.310713    19Ap     0.340983  
       7App    0.360135    20Ap     0.393710     8App    0.423333  
      21Ap     0.437013    22Ap     0.495693     9App    0.504793  
      23Ap     0.528378    10App    0.541555    24Ap     0.586774  
      25Ap     0.629160    11App    0.642123    26Ap     0.664877  
      27Ap     0.773037    12App    0.829622    28Ap     0.859187  
      29Ap     0.913395    30Ap     0.985676    31Ap     1.102924  
      13App    1.126249    14App    1.133619    32Ap     1.192196  
      33Ap     1.201504    15App    1.202777    34Ap     1.351645  
      35Ap     1.421378    16App    1.456766    36Ap     1.491328  
      37Ap     1.515000    38Ap     1.599421    17App    1.618316  
      39Ap     1.939065    18App    1.951190    40Ap     2.020355  
      19App    2.022172    41Ap     2.031647    20App    2.036515  
      21App    2.118269    42Ap     2.347507    22App    2.404328  
      43Ap     2.415773    44Ap     2.473249    45Ap     2.510238  
      46Ap     2.685323    23App    2.753022    47Ap     2.763965  
      48Ap     2.945637    49Ap     3.012502    50Ap     3.667627  
      24App    3.678865    25App    3.701266    51Ap     3.736937  
      52Ap     3.757240    26App    3.758867    53Ap     4.067080  
      54Ap     4.123379    27App    4.163582    55Ap     4.312554  

    Final Occupation by Irrep:
             Ap   App 
    DOCC [     8,    2 ]

  @DF-RHF Final Energy:  -152.07183529954204

   => Energetics <=

    Nuclear Repulsion Energy =             34.1186768155323179
    One-Electron Energy =                -277.6705688906531577
    Two-Electron Energy =                  91.4800567755787881
    Total Energy =                       -152.0718352995420446

Computation Completed


Properties will be evaluated at   0.000000,   0.000000,   0.000000 [a0]

Properties computed using the SCF density matrix


 Multipole Moments:

 ------------------------------------------------------------------------------------
     Multipole            Electronic (a.u.)      Nuclear  (a.u.)        Total (a.u.)
 ------------------------------------------------------------------------------------

 L = 1.  Multiply by 2.5417464519 to convert [e a0] to [Debye]
 Dipole X            :          0.1934078           -0.8057008           -0.6122930
 Dipole Y            :          0.0942405           -1.4558992           -1.3616587
 Dipole Z            :          0.0000000            0.0000000            0.0000000
 Magnitude           :                                                    1.4929893

 ------------------------------------------------------------------------------------

*** tstop() called on Lenovo-Y540-Zoha at Tue Sep 27 18:46:05 2022
Module time:
	user time   =        nan seconds =        nan minutes
	system time =        nan seconds =        nan minutes
	total time  =          1 seconds =       0.02 minutes
Total time:
	user time   =        nan seconds =        nan minutes
	system time =        nan seconds =        nan minutes
	total time  =       1184 seconds =      19.73 minutes

    Psi4 stopped on: Tuesday, 27 September 2022 06:46PM
    Psi4 wall time for execution: 0:00:01.04


  //>>>>>>>>>>>>>>>>>>>>>>>>>>>>>>>>>>>//
  //          ManyBody Results         //
  //<<<<<<<<<<<<<<<<<<<<<<<<<<<<<<<<<<<//


   ==> N-Body: Counterpoise Corrected (CP) energies <==

        n-Body     Total Energy            Interaction Energy                          N-body Contribution to Interaction Energy
                   [Eh]                    [Eh]                  [kcal/mol]            [Eh]                  [kcal/mol]
             1  N/A                         0.000000000000        0.000000000000        0.000000000000        0.000000000000
  FULL/RTN   2  N/A                        -0.006223520975       -3.905318371797       -0.006223520975       -3.905318371797

