
Scratch directory: C:\Users\64292\AppData\Local\Temp/

  //>>>>>>>>>>>>>>>>>>>>>>>>>>>>>>>>>>>>>//
  // ManyBody Setup: N-Body Levels [1, 2]//
  //<<<<<<<<<<<<<<<<<<<<<<<<<<<<<<<<<<<<<//

        Number of 1-body computations:     2
        Number of 2-body computations:     1

    -----------------------------------------------------------------------
          Psi4: An Open-Source Ab Initio Electronic Structure Package
                               Psi4 1.6.1 release

                         Git: Rev {HEAD} 5b9f6e3 


    D. G. A. Smith, L. A. Burns, A. C. Simmonett, R. M. Parrish,
    M. C. Schieber, R. Galvelis, P. Kraus, H. Kruse, R. Di Remigio,
    A. Alenaizan, A. M. James, S. Lehtola, J. P. Misiewicz, M. Scheurer,
    R. A. Shaw, J. B. Schriber, Y. Xie, Z. L. Glick, D. A. Sirianni,
    J. S. O'Brien, J. M. Waldrop, A. Kumar, E. G. Hohenstein,
    B. P. Pritchard, B. R. Brooks, H. F. Schaefer III, A. Yu. Sokolov,
    K. Patkowski, A. E. DePrince III, U. Bozkaya, R. A. King,
    F. A. Evangelista, J. M. Turney, T. D. Crawford, C. D. Sherrill,
    J. Chem. Phys. 152(18) 184108 (2020). https://doi.org/10.1063/5.0006002

                            Additional Code Authors
    E. T. Seidl, C. L. Janssen, E. F. Valeev, M. L. Leininger,
    J. F. Gonthier, R. M. Richard, H. R. McAlexander, M. Saitow, X. Wang,
    P. Verma, M. H. Lechner, and A. Jiang

             Previous Authors, Complete List of Code Contributors,
                       and Citations for Specific Modules
    https://github.com/psi4/psi4/blob/master/codemeta.json
    https://github.com/psi4/psi4/graphs/contributors
    http://psicode.org/psi4manual/master/introduction.html#citing-psifour

    -----------------------------------------------------------------------


    Psi4 started on: Tuesday, 27 September 2022 06:25PM

    Process ID: 10544
    Host:       Lenovo-Y540-Zoha
    PSIDATADIR: C:\Users\64292\Anaconda3\envs\qm-tools\lib\share\psi4
    Memory:     476.8 MiB
    Threads:    1
    
  ==> Input QCSchema <==

--------------------------------------------------------------------------
{'driver': 'energy',
 'extras': {'psiapi': True, 'wfn_qcvars_only': True},
 'id': None,
 'keywords': {'function_kwargs': {}},
 'model': {'basis': 'aug-cc-pvdz', 'method': 'scf'},
 'molecule': {'atom_labels': ['1', '2', '3', '5', '6', '7'],
              'atomic_numbers': [8, 1, 1, 8, 1, 1],
              'fix_com': True,
              'fix_orientation': True,
              'fragment_charges': [0.0, 0.0],
              'fragment_multiplicities': [1, 1],
              'fragments': [[0, 1, 2], [3, 4, 5]],
              'geometry': [2.3116078898047958e-17, -0.05118338925575476, -2.927077430585559, 2.3116078898047958e-17,
                           -0.05118338925575476, -1.0373513051277308, 2.3116078898047958e-17, 1.7781852282291912,
                           -3.4008656645034905, 2.3116078898047958e-17, -0.05118338925575476, 2.742100945787925,
                           0.4235705233001647, 1.529603324288996, 3.6869640085168394, -0.4235705233001655,
                           -1.6319701028005071, 3.6869640085168385],
              'mass_numbers': [16, 1, 1, 16, 1, 1],
              'masses': [15.99491461957, 1.00782503223, 1.00782503223, 15.99491461957, 1.00782503223, 1.00782503223],
              'molecular_charge': 0.0,
              'molecular_multiplicity': 1,
              'name': 'H4O2',
              'provenance': {'creator': 'QCElemental',
                             'routine': 'qcelemental.molparse.from_string',
                             'version': 'v0.25.0'},
              'real': [False, False, False, True, True, True],
              'schema_name': 'qcschema_molecule',
              'schema_version': 2,
              'symbols': ['O', 'H', 'H', 'O', 'H', 'H'],
              'validated': True},
 'protocols': {'stdout': True},
 'provenance': {'creator': 'QCElemental', 'routine': 'qcelemental.models.results', 'version': 'v0.25.0'},
 'schema_name': 'qcschema_input',
 'schema_version': 1}
--------------------------------------------------------------------------

Scratch directory: C:\Users\64292\AppData\Local\Temp/

*** tstart() called on Lenovo-Y540-Zoha
*** at Tue Sep 27 18:43:22 2022

   => Loading Basis Set <=

    Name: AUG-CC-PVDZ
    Role: ORBITAL
    Keyword: BASIS
    atoms 1, 4     entry O          line   254 file C:\Users\64292\Anaconda3\envs\qm-tools\lib\share\psi4\basis\aug-cc-pvdz.gbs 
    atoms 2-3, 5-6 entry H          line    40 file C:\Users\64292\Anaconda3\envs\qm-tools\lib\share\psi4\basis\aug-cc-pvdz.gbs 


         ---------------------------------------------------------
                                   SCF
               by Justin Turney, Rob Parrish, Andy Simmonett
                          and Daniel G. A. Smith
                              RHF Reference
                        1 Threads,    476 MiB Core
         ---------------------------------------------------------

  ==> Geometry <==

    Molecular point group: c1
    Full point group: C1

    Geometry (in Bohr), charge = 0, multiplicity = 1:

       Center              X                  Y                   Z               Mass       
    ------------   -----------------  -----------------  -----------------  -----------------
      Gh(O)           0.000000000000    -0.051183389256    -2.927077430586    15.994914619570
      Gh(H)           0.000000000000    -0.051183389256    -1.037351305128     1.007825032230
      Gh(H)           0.000000000000     1.778185228229    -3.400865664503     1.007825032230
         O            0.000000000000    -0.051183389256     2.742100945788    15.994914619570
         H            0.423570523300     1.529603324289     3.686964008517     1.007825032230
         H           -0.423570523300    -1.631970102801     3.686964008517     1.007825032230

  Running in c1 symmetry.

  Rotational constants: A =      7.04831  B =      0.20220  C =      0.19674 [cm^-1]
  Rotational constants: A = 211302.97627  B =   6061.85682  C =   5898.01522 [MHz]
  Nuclear repulsion =    8.772355975749340

  Charge       = 0
  Multiplicity = 1
  Electrons    = 10
  Nalpha       = 5
  Nbeta        = 5

  ==> Algorithm <==

  SCF Algorithm Type is DF.
  DIIS enabled.
  MOM disabled.
  Fractional occupation disabled.
  Guess Type is SAD.
  Energy threshold   = 1.00e-06
  Density threshold  = 1.00e-06
  Integral threshold = 1.00e-12

  ==> Primary Basis <==

  Basis Set: AUG-CC-PVDZ
    Blend: AUG-CC-PVDZ
    Number of shells: 38
    Number of basis functions: 82
    Number of Cartesian functions: 86
    Spherical Harmonics?: true
    Max angular momentum: 2

   => Loading Basis Set <=

    Name: (AUG-CC-PVDZ AUX)
    Role: JKFIT
    Keyword: DF_BASIS_SCF
    atoms 1, 4     entry O          line   270 file C:\Users\64292\Anaconda3\envs\qm-tools\lib\share\psi4\basis\aug-cc-pvdz-jkfit.gbs 
    atoms 2-3, 5-6 entry H          line    70 file C:\Users\64292\Anaconda3\envs\qm-tools\lib\share\psi4\basis\aug-cc-pvdz-jkfit.gbs 

  ==> Integral Setup <==

  DFHelper Memory: AOs need 0.017 GiB; user supplied 0.349 GiB. Using in-core AOs.

  ==> MemDFJK: Density-Fitted J/K Matrices <==

    J tasked:                   Yes
    K tasked:                   Yes
    wK tasked:                   No
    OpenMP threads:               1
    Memory [MiB]:               357
    Algorithm:                 Core
    Schwarz Cutoff:           1E-12
    Mask sparsity (%):       0.0000
    Fitting Condition:        1E-10

   => Auxiliary Basis Set <=

  Basis Set: (AUG-CC-PVDZ AUX)
    Blend: AUG-CC-PVDZ-JKFIT
    Number of shells: 104
    Number of basis functions: 300
    Number of Cartesian functions: 342
    Spherical Harmonics?: true
    Max angular momentum: 3

  Minimum eigenvalue in the overlap matrix is 1.8757293713E-03.
  Reciprocal condition number of the overlap matrix is 2.5580847314E-04.
    Using symmetric orthogonalization.

  ==> Pre-Iterations <==

  SCF Guess: Superposition of Atomic Densities via on-the-fly atomic UHF (no occupation information).

   -------------------------
    Irrep   Nso     Nmo    
   -------------------------
     A         82      82 
   -------------------------
    Total      82      82
   -------------------------

  ==> Iterations <==

                           Total Energy        Delta E     RMS |[F,P]|

   @DF-RHF iter SAD:   -75.40236273347499   -7.54024e+01   0.00000e+00 
   @DF-RHF iter   1:   -75.94515353062830   -5.42791e-01   5.50946e-03 DIIS/ADIIS
   @DF-RHF iter   2:   -75.99634770429556   -5.11942e-02   3.73162e-03 DIIS/ADIIS
   @DF-RHF iter   3:   -76.02944047922011   -3.30928e-02   2.79128e-04 DIIS/ADIIS
   @DF-RHF iter   4:   -76.02991150284029   -4.71024e-04   6.67732e-05 DIIS
   @DF-RHF iter   5:   -76.02994412096319   -3.26181e-05   1.62968e-05 DIIS
   @DF-RHF iter   6:   -76.02994719684102   -3.07588e-06   3.49969e-06 DIIS
   @DF-RHF iter   7:   -76.02994735209266   -1.55252e-07   6.43765e-07 DIIS
  Energy and wave function converged.


  ==> Post-Iterations <==

    Orbital Energies [Eh]
    ---------------------

    Doubly Occupied:                                                      

       1A    -20.575803     2A     -1.325809     3A     -0.721163  
       4A     -0.548226     5A     -0.500637  

    Virtual:                                                              

       6A      0.032563     7A      0.053133     8A      0.056447  
       9A      0.085493    10A      0.158320    11A      0.174030  
      12A      0.182113    13A      0.198106    14A      0.217899  
      15A      0.220966    16A      0.242081    17A      0.250383  
      18A      0.313611    19A      0.328546    20A      0.371843  
      21A      0.406345    22A      0.449280    23A      0.456383  
      24A      0.465559    25A      0.489148    26A      0.522345  
      27A      0.535721    28A      0.541824    29A      0.572244  
      30A      0.634296    31A      0.645625    32A      0.667419  
      33A      0.724884    34A      0.878412    35A      0.898420  
      36A      0.930420    37A      0.953357    38A      1.129109  
      39A      1.146168    40A      1.151784    41A      1.215893  
      42A      1.229722    43A      1.291391    44A      1.339021  
      45A      1.389153    46A      1.405341    47A      1.438724  
      48A      1.481429    49A      1.558843    50A      1.585929  
      51A      1.784751    52A      2.014116    53A      2.048093  
      54A      2.055500    55A      2.148850    56A      2.342137  
      57A      2.376646    58A      2.422788    59A      2.454092  
      60A      2.477731    61A      2.539728    62A      2.627750  
      63A      2.708143    64A      2.887101    65A      2.943754  
      66A      3.435864    67A      3.700958    68A      3.705654  
      69A      3.845333    70A      3.919892    71A      4.086637  
      72A      4.145998    73A      4.197090    74A      4.912920  
      75A      4.959761    76A      4.996971    77A      5.199636  
      78A      5.495886    79A      5.658359    80A      6.463568  
      81A      6.892533    82A     33.572173  

    Final Occupation by Irrep:
              A 
    DOCC [     5 ]

  @DF-RHF Final Energy:   -76.02994735209266

   => Energetics <=

    Nuclear Repulsion Energy =              8.7723559757493401
    One-Electron Energy =                -122.2612953994921270
    Two-Electron Energy =                  37.4589920716501297
    Total Energy =                        -76.0299473520926625

Computation Completed


Properties will be evaluated at   0.000000,   0.000000,   0.000000 [a0]

Properties computed using the SCF density matrix


 Multipole Moments:

 ------------------------------------------------------------------------------------
     Multipole            Electronic (a.u.)      Nuclear  (a.u.)        Total (a.u.)
 ------------------------------------------------------------------------------------

 L = 1.  Multiply by 2.5417464519 to convert [e a0] to [Debye]
 Dipole X            :          0.0000834           -0.0000000            0.0000834
 Dipole Y            :          0.5116349           -0.5118339           -0.0001990
 Dipole Z            :        -28.6255097           29.3107356            0.6852259
 Magnitude           :                                                    0.6852259

 ------------------------------------------------------------------------------------

*** tstop() called on Lenovo-Y540-Zoha at Tue Sep 27 18:43:23 2022
Module time:
	user time   =        nan seconds =        nan minutes
	system time =        nan seconds =        nan minutes
	total time  =          1 seconds =       0.02 minutes
Total time:
	user time   =        nan seconds =        nan minutes
	system time =        nan seconds =        nan minutes
	total time  =       1022 seconds =      17.03 minutes

    Psi4 stopped on: Tuesday, 27 September 2022 06:43PM
    Psi4 wall time for execution: 0:00:01.00


    -----------------------------------------------------------------------
          Psi4: An Open-Source Ab Initio Electronic Structure Package
                               Psi4 1.6.1 release

                         Git: Rev {HEAD} 5b9f6e3 


    D. G. A. Smith, L. A. Burns, A. C. Simmonett, R. M. Parrish,
    M. C. Schieber, R. Galvelis, P. Kraus, H. Kruse, R. Di Remigio,
    A. Alenaizan, A. M. James, S. Lehtola, J. P. Misiewicz, M. Scheurer,
    R. A. Shaw, J. B. Schriber, Y. Xie, Z. L. Glick, D. A. Sirianni,
    J. S. O'Brien, J. M. Waldrop, A. Kumar, E. G. Hohenstein,
    B. P. Pritchard, B. R. Brooks, H. F. Schaefer III, A. Yu. Sokolov,
    K. Patkowski, A. E. DePrince III, U. Bozkaya, R. A. King,
    F. A. Evangelista, J. M. Turney, T. D. Crawford, C. D. Sherrill,
    J. Chem. Phys. 152(18) 184108 (2020). https://doi.org/10.1063/5.0006002

                            Additional Code Authors
    E. T. Seidl, C. L. Janssen, E. F. Valeev, M. L. Leininger,
    J. F. Gonthier, R. M. Richard, H. R. McAlexander, M. Saitow, X. Wang,
    P. Verma, M. H. Lechner, and A. Jiang

             Previous Authors, Complete List of Code Contributors,
                       and Citations for Specific Modules
    https://github.com/psi4/psi4/blob/master/codemeta.json
    https://github.com/psi4/psi4/graphs/contributors
    http://psicode.org/psi4manual/master/introduction.html#citing-psifour

    -----------------------------------------------------------------------


    Psi4 started on: Tuesday, 27 September 2022 06:25PM

    Process ID: 10544
    Host:       Lenovo-Y540-Zoha
    PSIDATADIR: C:\Users\64292\Anaconda3\envs\qm-tools\lib\share\psi4
    Memory:     476.8 MiB
    Threads:    1
    
  ==> Input QCSchema <==

--------------------------------------------------------------------------
{'driver': 'energy',
 'extras': {'psiapi': True, 'wfn_qcvars_only': True},
 'id': None,
 'keywords': {'function_kwargs': {}},
 'model': {'basis': 'aug-cc-pvdz', 'method': 'scf'},
 'molecule': {'atom_labels': ['1', '2', '3', '5', '6', '7'],
              'atomic_numbers': [8, 1, 1, 8, 1, 1],
              'fix_com': True,
              'fix_orientation': True,
              'fragment_charges': [0.0, 0.0],
              'fragment_multiplicities': [1, 1],
              'fragments': [[0, 1, 2], [3, 4, 5]],
              'geometry': [2.3116078898047958e-17, -0.05118338925575476, -2.927077430585559, 2.3116078898047958e-17,
                           -0.05118338925575476, -1.0373513051277308, 2.3116078898047958e-17, 1.7781852282291912,
                           -3.4008656645034905, 2.3116078898047958e-17, -0.05118338925575476, 2.742100945787925,
                           0.4235705233001647, 1.529603324288996, 3.6869640085168394, -0.4235705233001655,
                           -1.6319701028005071, 3.6869640085168385],
              'mass_numbers': [16, 1, 1, 16, 1, 1],
              'masses': [15.99491461957, 1.00782503223, 1.00782503223, 15.99491461957, 1.00782503223, 1.00782503223],
              'molecular_charge': 0.0,
              'molecular_multiplicity': 1,
              'name': 'H4O2',
              'provenance': {'creator': 'QCElemental',
                             'routine': 'qcelemental.molparse.from_string',
                             'version': 'v0.25.0'},
              'real': [True, True, True, False, False, False],
              'schema_name': 'qcschema_molecule',
              'schema_version': 2,
              'symbols': ['O', 'H', 'H', 'O', 'H', 'H'],
              'validated': True},
 'protocols': {'stdout': True},
 'provenance': {'creator': 'QCElemental', 'routine': 'qcelemental.models.results', 'version': 'v0.25.0'},
 'schema_name': 'qcschema_input',
 'schema_version': 1}
--------------------------------------------------------------------------

Scratch directory: C:\Users\64292\AppData\Local\Temp/

*** tstart() called on Lenovo-Y540-Zoha
*** at Tue Sep 27 18:43:23 2022

   => Loading Basis Set <=

    Name: AUG-CC-PVDZ
    Role: ORBITAL
    Keyword: BASIS
    atoms 1, 4     entry O          line   254 file C:\Users\64292\Anaconda3\envs\qm-tools\lib\share\psi4\basis\aug-cc-pvdz.gbs 
    atoms 2-3, 5-6 entry H          line    40 file C:\Users\64292\Anaconda3\envs\qm-tools\lib\share\psi4\basis\aug-cc-pvdz.gbs 


         ---------------------------------------------------------
                                   SCF
               by Justin Turney, Rob Parrish, Andy Simmonett
                          and Daniel G. A. Smith
                              RHF Reference
                        1 Threads,    476 MiB Core
         ---------------------------------------------------------

  ==> Geometry <==

    Molecular point group: c1
    Full point group: C1

    Geometry (in Bohr), charge = 0, multiplicity = 1:

       Center              X                  Y                   Z               Mass       
    ------------   -----------------  -----------------  -----------------  -----------------
         O            0.000000000000    -0.051183389256    -2.927077430586    15.994914619570
         H            0.000000000000    -0.051183389256    -1.037351305128     1.007825032230
         H            0.000000000000     1.778185228229    -3.400865664503     1.007825032230
      Gh(O)           0.000000000000    -0.051183389256     2.742100945788    15.994914619570
      Gh(H)           0.423570523300     1.529603324289     3.686964008517     1.007825032230
      Gh(H)          -0.423570523300    -1.631970102801     3.686964008517     1.007825032230

  Running in c1 symmetry.

  Rotational constants: A =      7.04831  B =      0.20220  C =      0.19674 [cm^-1]
  Rotational constants: A = 211302.97627  B =   6061.85682  C =   5898.01522 [MHz]
  Nuclear repulsion =    8.801420354575150

  Charge       = 0
  Multiplicity = 1
  Electrons    = 10
  Nalpha       = 5
  Nbeta        = 5

  ==> Algorithm <==

  SCF Algorithm Type is DF.
  DIIS enabled.
  MOM disabled.
  Fractional occupation disabled.
  Guess Type is SAD.
  Energy threshold   = 1.00e-06
  Density threshold  = 1.00e-06
  Integral threshold = 1.00e-12

  ==> Primary Basis <==

  Basis Set: AUG-CC-PVDZ
    Blend: AUG-CC-PVDZ
    Number of shells: 38
    Number of basis functions: 82
    Number of Cartesian functions: 86
    Spherical Harmonics?: true
    Max angular momentum: 2

   => Loading Basis Set <=

    Name: (AUG-CC-PVDZ AUX)
    Role: JKFIT
    Keyword: DF_BASIS_SCF
    atoms 1, 4     entry O          line   270 file C:\Users\64292\Anaconda3\envs\qm-tools\lib\share\psi4\basis\aug-cc-pvdz-jkfit.gbs 
    atoms 2-3, 5-6 entry H          line    70 file C:\Users\64292\Anaconda3\envs\qm-tools\lib\share\psi4\basis\aug-cc-pvdz-jkfit.gbs 

  ==> Integral Setup <==

  DFHelper Memory: AOs need 0.017 GiB; user supplied 0.349 GiB. Using in-core AOs.

  ==> MemDFJK: Density-Fitted J/K Matrices <==

    J tasked:                   Yes
    K tasked:                   Yes
    wK tasked:                   No
    OpenMP threads:               1
    Memory [MiB]:               357
    Algorithm:                 Core
    Schwarz Cutoff:           1E-12
    Mask sparsity (%):       0.0000
    Fitting Condition:        1E-10

   => Auxiliary Basis Set <=

  Basis Set: (AUG-CC-PVDZ AUX)
    Blend: AUG-CC-PVDZ-JKFIT
    Number of shells: 104
    Number of basis functions: 300
    Number of Cartesian functions: 342
    Spherical Harmonics?: true
    Max angular momentum: 3

  Minimum eigenvalue in the overlap matrix is 1.8757293713E-03.
  Reciprocal condition number of the overlap matrix is 2.5580847314E-04.
    Using symmetric orthogonalization.

  ==> Pre-Iterations <==

  SCF Guess: Superposition of Atomic Densities via on-the-fly atomic UHF (no occupation information).

   -------------------------
    Irrep   Nso     Nmo    
   -------------------------
     A         82      82 
   -------------------------
    Total      82      82
   -------------------------

  ==> Iterations <==

                           Total Energy        Delta E     RMS |[F,P]|

   @DF-RHF iter SAD:   -75.41487087466309   -7.54149e+01   0.00000e+00 
   @DF-RHF iter   1:   -75.94941827557126   -5.34547e-01   5.50604e-03 DIIS/ADIIS
   @DF-RHF iter   2:   -76.00129912242795   -5.18808e-02   3.77559e-03 DIIS/ADIIS
   @DF-RHF iter   3:   -76.03525515905962   -3.39560e-02   2.81186e-04 DIIS/ADIIS
   @DF-RHF iter   4:   -76.03570869768005   -4.53539e-04   6.60459e-05 DIIS
   @DF-RHF iter   5:   -76.03573886836247   -3.01707e-05   1.56393e-05 DIIS
   @DF-RHF iter   6:   -76.03574144237477   -2.57401e-06   3.09388e-06 DIIS
   @DF-RHF iter   7:   -76.03574154590100   -1.03526e-07   5.05425e-07 DIIS
  Energy and wave function converged.


  ==> Post-Iterations <==

    Orbital Energies [Eh]
    ---------------------

    Doubly Occupied:                                                      

       1A    -20.584242     2A     -1.335641     3A     -0.696499  
       4A     -0.577367     5A     -0.506063  

    Virtual:                                                              

       6A      0.024698     7A      0.049330     8A      0.059213  
       9A      0.083303    10A      0.136968    11A      0.142513  
      12A      0.179797    13A      0.195833    14A      0.221069  
      15A      0.227546    16A      0.228073    17A      0.270402  
      18A      0.325617    19A      0.353929    20A      0.376476  
      21A      0.398460    22A      0.401052    23A      0.417852  
      24A      0.440419    25A      0.471141    26A      0.480087  
      27A      0.485220    28A      0.495365    29A      0.554973  
      30A      0.585833    31A      0.638364    32A      0.651203  
      33A      0.773517    34A      0.845257    35A      0.916939  
      36A      0.953821    37A      1.039479    38A      1.109595  
      39A      1.149204    40A      1.175592    41A      1.182160  
      42A      1.206195    43A      1.281986    44A      1.293125  
      45A      1.305495    46A      1.331071    47A      1.378271  
      48A      1.435491    49A      1.511090    50A      1.562312  
      51A      1.744107    52A      1.992781    53A      1.998877  
      54A      2.047586    55A      2.097929    56A      2.302856  
      57A      2.364056    58A      2.379745    59A      2.390136  
      60A      2.444132    61A      2.515098    62A      2.591198  
      63A      2.731836    64A      2.936072    65A      2.989932  
      66A      3.418910    67A      3.675378    68A      3.709766  
      69A      3.723436    70A      3.954604    71A      3.975333  
      72A      4.070699    73A      4.292401    74A      4.894321  
      75A      4.936787    76A      5.062768    77A      5.326056  
      78A      5.359328    79A      5.586155    80A      6.366769  
      81A      6.808585    82A     33.527497  

    Final Occupation by Irrep:
              A 
    DOCC [     5 ]

  @DF-RHF Final Energy:   -76.03574154590100

   => Energetics <=

    Nuclear Repulsion Energy =              8.8014203545751499
    One-Electron Energy =                -122.2746787992609114
    Two-Electron Energy =                  37.4375168987847644
    Total Energy =                        -76.0357415459010042

Computation Completed


Properties will be evaluated at   0.000000,   0.000000,   0.000000 [a0]

Properties computed using the SCF density matrix


 Multipole Moments:

 ------------------------------------------------------------------------------------
     Multipole            Electronic (a.u.)      Nuclear  (a.u.)        Total (a.u.)
 ------------------------------------------------------------------------------------

 L = 1.  Multiply by 2.5417464519 to convert [e a0] to [Debye]
 Dipole X            :          0.0000619            0.0000000            0.0000619
 Dipole Y            :         -0.6854087            1.3175347            0.6321260
 Dipole Z            :         28.3439766          -27.8548364            0.4891401
 Magnitude           :                                                    0.7992756

 ------------------------------------------------------------------------------------

*** tstop() called on Lenovo-Y540-Zoha at Tue Sep 27 18:43:24 2022
Module time:
	user time   =        nan seconds =        nan minutes
	system time =        nan seconds =        nan minutes
	total time  =          1 seconds =       0.02 minutes
Total time:
	user time   =        nan seconds =        nan minutes
	system time =        nan seconds =        nan minutes
	total time  =       1023 seconds =      17.05 minutes

    Psi4 stopped on: Tuesday, 27 September 2022 06:43PM
    Psi4 wall time for execution: 0:00:00.97


    -----------------------------------------------------------------------
          Psi4: An Open-Source Ab Initio Electronic Structure Package
                               Psi4 1.6.1 release

                         Git: Rev {HEAD} 5b9f6e3 


    D. G. A. Smith, L. A. Burns, A. C. Simmonett, R. M. Parrish,
    M. C. Schieber, R. Galvelis, P. Kraus, H. Kruse, R. Di Remigio,
    A. Alenaizan, A. M. James, S. Lehtola, J. P. Misiewicz, M. Scheurer,
    R. A. Shaw, J. B. Schriber, Y. Xie, Z. L. Glick, D. A. Sirianni,
    J. S. O'Brien, J. M. Waldrop, A. Kumar, E. G. Hohenstein,
    B. P. Pritchard, B. R. Brooks, H. F. Schaefer III, A. Yu. Sokolov,
    K. Patkowski, A. E. DePrince III, U. Bozkaya, R. A. King,
    F. A. Evangelista, J. M. Turney, T. D. Crawford, C. D. Sherrill,
    J. Chem. Phys. 152(18) 184108 (2020). https://doi.org/10.1063/5.0006002

                            Additional Code Authors
    E. T. Seidl, C. L. Janssen, E. F. Valeev, M. L. Leininger,
    J. F. Gonthier, R. M. Richard, H. R. McAlexander, M. Saitow, X. Wang,
    P. Verma, M. H. Lechner, and A. Jiang

             Previous Authors, Complete List of Code Contributors,
                       and Citations for Specific Modules
    https://github.com/psi4/psi4/blob/master/codemeta.json
    https://github.com/psi4/psi4/graphs/contributors
    http://psicode.org/psi4manual/master/introduction.html#citing-psifour

    -----------------------------------------------------------------------


    Psi4 started on: Tuesday, 27 September 2022 06:25PM

    Process ID: 10544
    Host:       Lenovo-Y540-Zoha
    PSIDATADIR: C:\Users\64292\Anaconda3\envs\qm-tools\lib\share\psi4
    Memory:     476.8 MiB
    Threads:    1
    
  ==> Input QCSchema <==

--------------------------------------------------------------------------
{'driver': 'energy',
 'extras': {'psiapi': True, 'wfn_qcvars_only': True},
 'id': None,
 'keywords': {'function_kwargs': {}},
 'model': {'basis': 'aug-cc-pvdz', 'method': 'scf'},
 'molecule': {'atom_labels': ['1', '2', '3', '5', '6', '7'],
              'atomic_numbers': [8, 1, 1, 8, 1, 1],
              'fix_com': True,
              'fix_orientation': True,
              'fragment_charges': [0.0, 0.0],
              'fragment_multiplicities': [1, 1],
              'fragments': [[0, 1, 2], [3, 4, 5]],
              'geometry': [2.3116078898047958e-17, -0.05118338925575476, -2.927077430585559, 2.3116078898047958e-17,
                           -0.05118338925575476, -1.0373513051277308, 2.3116078898047958e-17, 1.7781852282291912,
                           -3.4008656645034905, 2.3116078898047958e-17, -0.05118338925575476, 2.742100945787925,
                           0.4235705233001647, 1.529603324288996, 3.6869640085168394, -0.4235705233001655,
                           -1.6319701028005071, 3.6869640085168385],
              'mass_numbers': [16, 1, 1, 16, 1, 1],
              'masses': [15.99491461957, 1.00782503223, 1.00782503223, 15.99491461957, 1.00782503223, 1.00782503223],
              'molecular_charge': 0.0,
              'molecular_multiplicity': 1,
              'name': 'H4O2',
              'provenance': {'creator': 'QCElemental',
                             'routine': 'qcelemental.molparse.from_string',
                             'version': 'v0.25.0'},
              'real': [True, True, True, True, True, True],
              'schema_name': 'qcschema_molecule',
              'schema_version': 2,
              'symbols': ['O', 'H', 'H', 'O', 'H', 'H'],
              'validated': True},
 'protocols': {'stdout': True},
 'provenance': {'creator': 'QCElemental', 'routine': 'qcelemental.models.results', 'version': 'v0.25.0'},
 'schema_name': 'qcschema_input',
 'schema_version': 1}
--------------------------------------------------------------------------

Scratch directory: C:\Users\64292\AppData\Local\Temp/

*** tstart() called on Lenovo-Y540-Zoha
*** at Tue Sep 27 18:43:24 2022

   => Loading Basis Set <=

    Name: AUG-CC-PVDZ
    Role: ORBITAL
    Keyword: BASIS
    atoms 1, 4     entry O          line   254 file C:\Users\64292\Anaconda3\envs\qm-tools\lib\share\psi4\basis\aug-cc-pvdz.gbs 
    atoms 2-3, 5-6 entry H          line    40 file C:\Users\64292\Anaconda3\envs\qm-tools\lib\share\psi4\basis\aug-cc-pvdz.gbs 


         ---------------------------------------------------------
                                   SCF
               by Justin Turney, Rob Parrish, Andy Simmonett
                          and Daniel G. A. Smith
                              RHF Reference
                        1 Threads,    476 MiB Core
         ---------------------------------------------------------

  ==> Geometry <==

    Molecular point group: c1
    Full point group: C1

    Geometry (in Bohr), charge = 0, multiplicity = 1:

       Center              X                  Y                   Z               Mass       
    ------------   -----------------  -----------------  -----------------  -----------------
         O            0.000000000000    -0.051183389256    -2.927077430586    15.994914619570
         H            0.000000000000    -0.051183389256    -1.037351305128     1.007825032230
         H            0.000000000000     1.778185228229    -3.400865664503     1.007825032230
         O            0.000000000000    -0.051183389256     2.742100945788    15.994914619570
         H            0.423570523300     1.529603324289     3.686964008517     1.007825032230
         H           -0.423570523300    -1.631970102801     3.686964008517     1.007825032230

  Running in c1 symmetry.

  Rotational constants: A =      7.04831  B =      0.20220  C =      0.19674 [cm^-1]
  Rotational constants: A = 211302.97627  B =   6061.85682  C =   5898.01522 [MHz]
  Nuclear repulsion =   35.243732591336183

  Charge       = 0
  Multiplicity = 1
  Electrons    = 20
  Nalpha       = 10
  Nbeta        = 10

  ==> Algorithm <==

  SCF Algorithm Type is DF.
  DIIS enabled.
  MOM disabled.
  Fractional occupation disabled.
  Guess Type is SAD.
  Energy threshold   = 1.00e-06
  Density threshold  = 1.00e-06
  Integral threshold = 1.00e-12

  ==> Primary Basis <==

  Basis Set: AUG-CC-PVDZ
    Blend: AUG-CC-PVDZ
    Number of shells: 38
    Number of basis functions: 82
    Number of Cartesian functions: 86
    Spherical Harmonics?: true
    Max angular momentum: 2

   => Loading Basis Set <=

    Name: (AUG-CC-PVDZ AUX)
    Role: JKFIT
    Keyword: DF_BASIS_SCF
    atoms 1, 4     entry O          line   270 file C:\Users\64292\Anaconda3\envs\qm-tools\lib\share\psi4\basis\aug-cc-pvdz-jkfit.gbs 
    atoms 2-3, 5-6 entry H          line    70 file C:\Users\64292\Anaconda3\envs\qm-tools\lib\share\psi4\basis\aug-cc-pvdz-jkfit.gbs 

  ==> Integral Setup <==

  DFHelper Memory: AOs need 0.017 GiB; user supplied 0.349 GiB. Using in-core AOs.

  ==> MemDFJK: Density-Fitted J/K Matrices <==

    J tasked:                   Yes
    K tasked:                   Yes
    wK tasked:                   No
    OpenMP threads:               1
    Memory [MiB]:               357
    Algorithm:                 Core
    Schwarz Cutoff:           1E-12
    Mask sparsity (%):       0.0000
    Fitting Condition:        1E-10

   => Auxiliary Basis Set <=

  Basis Set: (AUG-CC-PVDZ AUX)
    Blend: AUG-CC-PVDZ-JKFIT
    Number of shells: 104
    Number of basis functions: 300
    Number of Cartesian functions: 342
    Spherical Harmonics?: true
    Max angular momentum: 3

  Minimum eigenvalue in the overlap matrix is 1.8757293713E-03.
  Reciprocal condition number of the overlap matrix is 2.5580847314E-04.
    Using symmetric orthogonalization.

  ==> Pre-Iterations <==

  SCF Guess: Superposition of Atomic Densities via on-the-fly atomic UHF (no occupation information).

   -------------------------
    Irrep   Nso     Nmo    
   -------------------------
     A         82      82 
   -------------------------
    Total      82      82
   -------------------------

  ==> Iterations <==

                           Total Energy        Delta E     RMS |[F,P]|

   @DF-RHF iter SAD:  -150.88716368654684   -1.50887e+02   0.00000e+00 
   @DF-RHF iter   1:  -151.91272733598925   -1.02556e+00   7.51680e-03 DIIS/ADIIS
   @DF-RHF iter   2:  -152.01283962077451   -1.00112e-01   4.93781e-03 DIIS/ADIIS
   @DF-RHF iter   3:  -152.07055123304343   -5.77116e-02   4.12957e-04 DIIS/ADIIS
   @DF-RHF iter   4:  -152.07152366750586   -9.72434e-04   9.12441e-05 DIIS
   @DF-RHF iter   5:  -152.07158042276779   -5.67553e-05   3.02373e-05 DIIS
   @DF-RHF iter   6:  -152.07158618592680   -5.76316e-06   1.31669e-05 DIIS
   @DF-RHF iter   7:  -152.07158711919465   -9.33268e-07   2.51728e-06 DIIS
   @DF-RHF iter   8:  -152.07158718608778   -6.68931e-08   4.63139e-07 DIIS
  Energy and wave function converged.


  ==> Post-Iterations <==

    Orbital Energies [Eh]
    ---------------------

    Doubly Occupied:                                                      

       1A    -20.600994     2A    -20.549704     3A     -1.353609  
       4A     -1.303906     5A     -0.747094     6A     -0.672050  
       7A     -0.583934     8A     -0.539020     9A     -0.527978  
      10A     -0.474287  

    Virtual:                                                              

      11A      0.025181    12A      0.048918    13A      0.059265  
      14A      0.091367    15A      0.173847    16A      0.178653  
      17A      0.196920    18A      0.213215    19A      0.233645  
      20A      0.239219    21A      0.247539    22A      0.269484  
      23A      0.302609    24A      0.312386    25A      0.354978  
      26A      0.366631    27A      0.414507    28A      0.436585  
      29A      0.446290    30A      0.467990    31A      0.521879  
      32A      0.529824    33A      0.538164    34A      0.588888  
      35A      0.631171    36A      0.655151    37A      0.671842  
      38A      0.784272    39A      0.861515    40A      0.880183  
      41A      0.945212    42A      0.997693    43A      1.073410  
      44A      1.122368    45A      1.142859    46A      1.180051  
      47A      1.187376    48A      1.228476    49A      1.332351  
      50A      1.442749    51A      1.461602    52A      1.512806  
      53A      1.537349    54A      1.609328    55A      1.622561  
      56A      1.967332    57A      1.987716    58A      2.016546  
      59A      2.022861    60A      2.029679    61A      2.044485  
      62A      2.136251    63A      2.363001    64A      2.383232  
      65A      2.458592    66A      2.493375    67A      2.515284  
      68A      2.745066    69A      2.764710    70A      2.820319  
      71A      2.980510    72A      3.030266    73A      3.663518  
      74A      3.674599    75A      3.708233    76A      3.741082  
      77A      3.767214    78A      3.802451    79A      4.082759  
      80A      4.120564    81A      4.177689    82A      4.363049  

    Final Occupation by Irrep:
              A 
    DOCC [    10 ]

  @DF-RHF Final Energy:  -152.07158718608778

   => Energetics <=

    Nuclear Repulsion Energy =             35.2437325913361832
    One-Electron Energy =                -279.9254724307055540
    Two-Electron Energy =                  92.6101526532815740
    Total Energy =                       -152.0715871860877826

Computation Completed


Properties will be evaluated at   0.000000,   0.000000,   0.000000 [a0]

Properties computed using the SCF density matrix


 Multipole Moments:

 ------------------------------------------------------------------------------------
     Multipole            Electronic (a.u.)      Nuclear  (a.u.)        Total (a.u.)
 ------------------------------------------------------------------------------------

 L = 1.  Multiply by 2.5417464519 to convert [e a0] to [Debye]
 Dipole X            :         -0.0007187           -0.0000000           -0.0007187
 Dipole Y            :         -0.2022623            0.8057008            0.6034385
 Dipole Z            :         -0.0425356            1.4558992            1.4133635
 Magnitude           :                                                    1.5367938

 ------------------------------------------------------------------------------------

*** tstop() called on Lenovo-Y540-Zoha at Tue Sep 27 18:43:25 2022
Module time:
	user time   =        nan seconds =        nan minutes
	system time =        nan seconds =        nan minutes
	total time  =          1 seconds =       0.02 minutes
Total time:
	user time   =        nan seconds =        nan minutes
	system time =        nan seconds =        nan minutes
	total time  =       1024 seconds =      17.07 minutes

    Psi4 stopped on: Tuesday, 27 September 2022 06:43PM
    Psi4 wall time for execution: 0:00:01.00


  //>>>>>>>>>>>>>>>>>>>>>>>>>>>>>>>>>>>//
  //          ManyBody Results         //
  //<<<<<<<<<<<<<<<<<<<<<<<<<<<<<<<<<<<//


   ==> N-Body: Counterpoise Corrected (CP) energies <==

        n-Body     Total Energy            Interaction Energy                          N-body Contribution to Interaction Energy
                   [Eh]                    [Eh]                  [kcal/mol]            [Eh]                  [kcal/mol]
             1  N/A                         0.000000000000        0.000000000000        0.000000000000        0.000000000000
  FULL/RTN   2  N/A                        -0.005898288094       -3.701231658136       -0.005898288094       -3.701231658136

