
Scratch directory: C:\Users\64292\AppData\Local\Temp/

  //>>>>>>>>>>>>>>>>>>>>>>>>>>>>>>>>>>>>>//
  // ManyBody Setup: N-Body Levels [1, 2]//
  //<<<<<<<<<<<<<<<<<<<<<<<<<<<<<<<<<<<<<//

        Number of 1-body computations:     2
        Number of 2-body computations:     1

    -----------------------------------------------------------------------
          Psi4: An Open-Source Ab Initio Electronic Structure Package
                               Psi4 1.6.1 release

                         Git: Rev {HEAD} 5b9f6e3 


    D. G. A. Smith, L. A. Burns, A. C. Simmonett, R. M. Parrish,
    M. C. Schieber, R. Galvelis, P. Kraus, H. Kruse, R. Di Remigio,
    A. Alenaizan, A. M. James, S. Lehtola, J. P. Misiewicz, M. Scheurer,
    R. A. Shaw, J. B. Schriber, Y. Xie, Z. L. Glick, D. A. Sirianni,
    J. S. O'Brien, J. M. Waldrop, A. Kumar, E. G. Hohenstein,
    B. P. Pritchard, B. R. Brooks, H. F. Schaefer III, A. Yu. Sokolov,
    K. Patkowski, A. E. DePrince III, U. Bozkaya, R. A. King,
    F. A. Evangelista, J. M. Turney, T. D. Crawford, C. D. Sherrill,
    J. Chem. Phys. 152(18) 184108 (2020). https://doi.org/10.1063/5.0006002

                            Additional Code Authors
    E. T. Seidl, C. L. Janssen, E. F. Valeev, M. L. Leininger,
    J. F. Gonthier, R. M. Richard, H. R. McAlexander, M. Saitow, X. Wang,
    P. Verma, M. H. Lechner, and A. Jiang

             Previous Authors, Complete List of Code Contributors,
                       and Citations for Specific Modules
    https://github.com/psi4/psi4/blob/master/codemeta.json
    https://github.com/psi4/psi4/graphs/contributors
    http://psicode.org/psi4manual/master/introduction.html#citing-psifour

    -----------------------------------------------------------------------


    Psi4 started on: Tuesday, 27 September 2022 06:25PM

    Process ID: 10544
    Host:       Lenovo-Y540-Zoha
    PSIDATADIR: C:\Users\64292\Anaconda3\envs\qm-tools\lib\share\psi4
    Memory:     476.8 MiB
    Threads:    1
    
  ==> Input QCSchema <==

--------------------------------------------------------------------------
{'driver': 'energy',
 'extras': {'psiapi': True, 'wfn_qcvars_only': True},
 'id': None,
 'keywords': {'function_kwargs': {}},
 'model': {'basis': 'aug-cc-pvdz', 'method': 'scf'},
 'molecule': {'atom_labels': ['1', '2', '3', '5', '6', '7'],
              'atomic_numbers': [8, 1, 1, 8, 1, 1],
              'fix_com': True,
              'fix_orientation': True,
              'fragment_charges': [0.0, 0.0],
              'fragment_multiplicities': [1, 1],
              'fragments': [[0, 1, 2], [3, 4, 5]],
              'geometry': [6.164287706146122e-18, -0.05118338925575479, -2.8325911243126685, 6.164287706146122e-18,
                           -0.05118338925575479, -0.9428649988548403, 6.164287706146122e-18, 1.7781852282291912,
                           -3.3063793582306, 6.164287706146122e-18, -0.05118338925575479, 2.6476146395150337,
                           -0.8182754154208095, 1.3661112048376158, 3.592477702243948, 0.8182754154208093,
                           -1.4684779833491262, 3.592477702243947],
              'mass_numbers': [16, 1, 1, 16, 1, 1],
              'masses': [15.99491461957, 1.00782503223, 1.00782503223, 15.99491461957, 1.00782503223, 1.00782503223],
              'molecular_charge': 0.0,
              'molecular_multiplicity': 1,
              'name': 'H4O2',
              'provenance': {'creator': 'QCElemental',
                             'routine': 'qcelemental.molparse.from_string',
                             'version': 'v0.25.0'},
              'real': [False, False, False, True, True, True],
              'schema_name': 'qcschema_molecule',
              'schema_version': 2,
              'symbols': ['O', 'H', 'H', 'O', 'H', 'H'],
              'validated': True},
 'protocols': {'stdout': True},
 'provenance': {'creator': 'QCElemental', 'routine': 'qcelemental.models.results', 'version': 'v0.25.0'},
 'schema_name': 'qcschema_input',
 'schema_version': 1}
--------------------------------------------------------------------------

Scratch directory: C:\Users\64292\AppData\Local\Temp/

*** tstart() called on Lenovo-Y540-Zoha
*** at Tue Sep 27 18:40:40 2022

   => Loading Basis Set <=

    Name: AUG-CC-PVDZ
    Role: ORBITAL
    Keyword: BASIS
    atoms 1, 4     entry O          line   254 file C:\Users\64292\Anaconda3\envs\qm-tools\lib\share\psi4\basis\aug-cc-pvdz.gbs 
    atoms 2-3, 5-6 entry H          line    40 file C:\Users\64292\Anaconda3\envs\qm-tools\lib\share\psi4\basis\aug-cc-pvdz.gbs 


         ---------------------------------------------------------
                                   SCF
               by Justin Turney, Rob Parrish, Andy Simmonett
                          and Daniel G. A. Smith
                              RHF Reference
                        1 Threads,    476 MiB Core
         ---------------------------------------------------------

  ==> Geometry <==

    Molecular point group: c1
    Full point group: C1

    Geometry (in Bohr), charge = 0, multiplicity = 1:

       Center              X                  Y                   Z               Mass       
    ------------   -----------------  -----------------  -----------------  -----------------
      Gh(O)           0.000000000000    -0.051183389256    -2.832591124313    15.994914619570
      Gh(H)           0.000000000000    -0.051183389256    -0.942864998855     1.007825032230
      Gh(H)           0.000000000000     1.778185228229    -3.306379358231     1.007825032230
         O            0.000000000000    -0.051183389256     2.647614639515    15.994914619570
         H           -0.818275415421     1.366111204838     3.592477702244     1.007825032230
         H            0.818275415421    -1.468477983349     3.592477702244     1.007825032230

  Running in c1 symmetry.

  Rotational constants: A =      7.04923  B =      0.21573  C =      0.21010 [cm^-1]
  Rotational constants: A = 211330.73244  B =   6467.38754  C =   6298.54055 [MHz]
  Nuclear repulsion =    8.772355975749342

  Charge       = 0
  Multiplicity = 1
  Electrons    = 10
  Nalpha       = 5
  Nbeta        = 5

  ==> Algorithm <==

  SCF Algorithm Type is DF.
  DIIS enabled.
  MOM disabled.
  Fractional occupation disabled.
  Guess Type is SAD.
  Energy threshold   = 1.00e-06
  Density threshold  = 1.00e-06
  Integral threshold = 1.00e-12

  ==> Primary Basis <==

  Basis Set: AUG-CC-PVDZ
    Blend: AUG-CC-PVDZ
    Number of shells: 38
    Number of basis functions: 82
    Number of Cartesian functions: 86
    Spherical Harmonics?: true
    Max angular momentum: 2

   => Loading Basis Set <=

    Name: (AUG-CC-PVDZ AUX)
    Role: JKFIT
    Keyword: DF_BASIS_SCF
    atoms 1, 4     entry O          line   270 file C:\Users\64292\Anaconda3\envs\qm-tools\lib\share\psi4\basis\aug-cc-pvdz-jkfit.gbs 
    atoms 2-3, 5-6 entry H          line    70 file C:\Users\64292\Anaconda3\envs\qm-tools\lib\share\psi4\basis\aug-cc-pvdz-jkfit.gbs 

  ==> Integral Setup <==

  DFHelper Memory: AOs need 0.017 GiB; user supplied 0.349 GiB. Using in-core AOs.

  ==> MemDFJK: Density-Fitted J/K Matrices <==

    J tasked:                   Yes
    K tasked:                   Yes
    wK tasked:                   No
    OpenMP threads:               1
    Memory [MiB]:               357
    Algorithm:                 Core
    Schwarz Cutoff:           1E-12
    Mask sparsity (%):       0.0000
    Fitting Condition:        1E-10

   => Auxiliary Basis Set <=

  Basis Set: (AUG-CC-PVDZ AUX)
    Blend: AUG-CC-PVDZ-JKFIT
    Number of shells: 104
    Number of basis functions: 300
    Number of Cartesian functions: 342
    Spherical Harmonics?: true
    Max angular momentum: 3

  Minimum eigenvalue in the overlap matrix is 1.8747029762E-03.
  Reciprocal condition number of the overlap matrix is 2.5099164640E-04.
    Using symmetric orthogonalization.

  ==> Pre-Iterations <==

  SCF Guess: Superposition of Atomic Densities via on-the-fly atomic UHF (no occupation information).

   -------------------------
    Irrep   Nso     Nmo    
   -------------------------
     A         82      82 
   -------------------------
    Total      82      82
   -------------------------

  ==> Iterations <==

                           Total Energy        Delta E     RMS |[F,P]|

   @DF-RHF iter SAD:   -75.40236272012636   -7.54024e+01   0.00000e+00 
   @DF-RHF iter   1:   -75.94519660119995   -5.42834e-01   5.51021e-03 DIIS/ADIIS
   @DF-RHF iter   2:   -75.99639592089476   -5.11993e-02   3.73264e-03 DIIS/ADIIS
   @DF-RHF iter   3:   -76.02948683243602   -3.30909e-02   2.79082e-04 DIIS/ADIIS
   @DF-RHF iter   4:   -76.02995781036262   -4.70978e-04   6.67933e-05 DIIS
   @DF-RHF iter   5:   -76.02999045037267   -3.26400e-05   1.63008e-05 DIIS
   @DF-RHF iter   6:   -76.02999352820915   -3.07784e-06   3.50240e-06 DIIS
   @DF-RHF iter   7:   -76.02999368372684   -1.55518e-07   6.44646e-07 DIIS
  Energy and wave function converged.


  ==> Post-Iterations <==

    Orbital Energies [Eh]
    ---------------------

    Doubly Occupied:                                                      

       1A    -20.575847     2A     -1.325801     3A     -0.721142  
       4A     -0.548208     5A     -0.500609  

    Virtual:                                                              

       6A      0.032505     7A      0.053588     8A      0.056615  
       9A      0.084511    10A      0.160679    11A      0.174719  
      12A      0.182286    13A      0.198358    14A      0.216661  
      15A      0.222181    16A      0.242947    17A      0.251294  
      18A      0.317000    19A      0.327368    20A      0.369628  
      21A      0.407367    22A      0.449489    23A      0.454851  
      24A      0.469660    25A      0.498145    26A      0.526255  
      27A      0.535511    28A      0.545857    29A      0.574359  
      30A      0.637081    31A      0.649794    32A      0.667485  
      33A      0.725852    34A      0.880120    35A      0.891320  
      36A      0.940229    37A      0.963179    38A      1.137320  
      39A      1.147731    40A      1.169615    41A      1.203742  
      42A      1.226575    43A      1.290935    44A      1.339767  
      45A      1.403736    46A      1.408244    47A      1.447473  
      48A      1.500657    49A      1.573184    50A      1.588382  
      51A      1.767712    52A      2.011946    53A      2.049090  
      54A      2.059608    55A      2.168633    56A      2.370849  
      57A      2.380671    58A      2.419319    59A      2.464163  
      60A      2.494378    61A      2.548106    62A      2.652839  
      63A      2.762702    64A      2.909615    65A      2.951903  
      66A      3.444490    67A      3.701124    68A      3.721918  
      69A      3.857697    70A      3.917336    71A      4.095378  
      72A      4.147388    73A      4.202159    74A      4.914721  
      75A      4.961916    76A      5.000692    77A      5.202588  
      78A      5.497782    79A      5.676252    80A      6.486565  
      81A      6.927059    82A     33.575500  

    Final Occupation by Irrep:
              A 
    DOCC [     5 ]

  @DF-RHF Final Energy:   -76.02999368372684

   => Energetics <=

    Nuclear Repulsion Energy =              8.7723559757493419
    One-Electron Energy =                -122.2614479962941516
    Two-Electron Energy =                  37.4590983368179593
    Total Energy =                        -76.0299936837268433

Computation Completed


Properties will be evaluated at   0.000000,   0.000000,   0.000000 [a0]

Properties computed using the SCF density matrix


 Multipole Moments:

 ------------------------------------------------------------------------------------
     Multipole            Electronic (a.u.)      Nuclear  (a.u.)        Total (a.u.)
 ------------------------------------------------------------------------------------

 L = 1.  Multiply by 2.5417464519 to convert [e a0] to [Debye]
 Dipole X            :         -0.0001370           -0.0000000           -0.0001370
 Dipole Y            :          0.5115758           -0.5118339           -0.0002581
 Dipole Z            :        -27.6812994           28.3658725            0.6845731
 Magnitude           :                                                    0.6845732

 ------------------------------------------------------------------------------------

*** tstop() called on Lenovo-Y540-Zoha at Tue Sep 27 18:40:41 2022
Module time:
	user time   =        nan seconds =        nan minutes
	system time =        nan seconds =        nan minutes
	total time  =          1 seconds =       0.02 minutes
Total time:
	user time   =        nan seconds =        nan minutes
	system time =        nan seconds =        nan minutes
	total time  =        860 seconds =      14.33 minutes

    Psi4 stopped on: Tuesday, 27 September 2022 06:40PM
    Psi4 wall time for execution: 0:00:00.99


    -----------------------------------------------------------------------
          Psi4: An Open-Source Ab Initio Electronic Structure Package
                               Psi4 1.6.1 release

                         Git: Rev {HEAD} 5b9f6e3 


    D. G. A. Smith, L. A. Burns, A. C. Simmonett, R. M. Parrish,
    M. C. Schieber, R. Galvelis, P. Kraus, H. Kruse, R. Di Remigio,
    A. Alenaizan, A. M. James, S. Lehtola, J. P. Misiewicz, M. Scheurer,
    R. A. Shaw, J. B. Schriber, Y. Xie, Z. L. Glick, D. A. Sirianni,
    J. S. O'Brien, J. M. Waldrop, A. Kumar, E. G. Hohenstein,
    B. P. Pritchard, B. R. Brooks, H. F. Schaefer III, A. Yu. Sokolov,
    K. Patkowski, A. E. DePrince III, U. Bozkaya, R. A. King,
    F. A. Evangelista, J. M. Turney, T. D. Crawford, C. D. Sherrill,
    J. Chem. Phys. 152(18) 184108 (2020). https://doi.org/10.1063/5.0006002

                            Additional Code Authors
    E. T. Seidl, C. L. Janssen, E. F. Valeev, M. L. Leininger,
    J. F. Gonthier, R. M. Richard, H. R. McAlexander, M. Saitow, X. Wang,
    P. Verma, M. H. Lechner, and A. Jiang

             Previous Authors, Complete List of Code Contributors,
                       and Citations for Specific Modules
    https://github.com/psi4/psi4/blob/master/codemeta.json
    https://github.com/psi4/psi4/graphs/contributors
    http://psicode.org/psi4manual/master/introduction.html#citing-psifour

    -----------------------------------------------------------------------


    Psi4 started on: Tuesday, 27 September 2022 06:25PM

    Process ID: 10544
    Host:       Lenovo-Y540-Zoha
    PSIDATADIR: C:\Users\64292\Anaconda3\envs\qm-tools\lib\share\psi4
    Memory:     476.8 MiB
    Threads:    1
    
  ==> Input QCSchema <==

--------------------------------------------------------------------------
{'driver': 'energy',
 'extras': {'psiapi': True, 'wfn_qcvars_only': True},
 'id': None,
 'keywords': {'function_kwargs': {}},
 'model': {'basis': 'aug-cc-pvdz', 'method': 'scf'},
 'molecule': {'atom_labels': ['1', '2', '3', '5', '6', '7'],
              'atomic_numbers': [8, 1, 1, 8, 1, 1],
              'fix_com': True,
              'fix_orientation': True,
              'fragment_charges': [0.0, 0.0],
              'fragment_multiplicities': [1, 1],
              'fragments': [[0, 1, 2], [3, 4, 5]],
              'geometry': [6.164287706146122e-18, -0.05118338925575479, -2.8325911243126685, 6.164287706146122e-18,
                           -0.05118338925575479, -0.9428649988548403, 6.164287706146122e-18, 1.7781852282291912,
                           -3.3063793582306, 6.164287706146122e-18, -0.05118338925575479, 2.6476146395150337,
                           -0.8182754154208095, 1.3661112048376158, 3.592477702243948, 0.8182754154208093,
                           -1.4684779833491262, 3.592477702243947],
              'mass_numbers': [16, 1, 1, 16, 1, 1],
              'masses': [15.99491461957, 1.00782503223, 1.00782503223, 15.99491461957, 1.00782503223, 1.00782503223],
              'molecular_charge': 0.0,
              'molecular_multiplicity': 1,
              'name': 'H4O2',
              'provenance': {'creator': 'QCElemental',
                             'routine': 'qcelemental.molparse.from_string',
                             'version': 'v0.25.0'},
              'real': [True, True, True, False, False, False],
              'schema_name': 'qcschema_molecule',
              'schema_version': 2,
              'symbols': ['O', 'H', 'H', 'O', 'H', 'H'],
              'validated': True},
 'protocols': {'stdout': True},
 'provenance': {'creator': 'QCElemental', 'routine': 'qcelemental.models.results', 'version': 'v0.25.0'},
 'schema_name': 'qcschema_input',
 'schema_version': 1}
--------------------------------------------------------------------------

Scratch directory: C:\Users\64292\AppData\Local\Temp/

*** tstart() called on Lenovo-Y540-Zoha
*** at Tue Sep 27 18:40:42 2022

   => Loading Basis Set <=

    Name: AUG-CC-PVDZ
    Role: ORBITAL
    Keyword: BASIS
    atoms 1, 4     entry O          line   254 file C:\Users\64292\Anaconda3\envs\qm-tools\lib\share\psi4\basis\aug-cc-pvdz.gbs 
    atoms 2-3, 5-6 entry H          line    40 file C:\Users\64292\Anaconda3\envs\qm-tools\lib\share\psi4\basis\aug-cc-pvdz.gbs 


         ---------------------------------------------------------
                                   SCF
               by Justin Turney, Rob Parrish, Andy Simmonett
                          and Daniel G. A. Smith
                              RHF Reference
                        1 Threads,    476 MiB Core
         ---------------------------------------------------------

  ==> Geometry <==

    Molecular point group: c1
    Full point group: C1

    Geometry (in Bohr), charge = 0, multiplicity = 1:

       Center              X                  Y                   Z               Mass       
    ------------   -----------------  -----------------  -----------------  -----------------
         O            0.000000000000    -0.051183389256    -2.832591124313    15.994914619570
         H            0.000000000000    -0.051183389256    -0.942864998855     1.007825032230
         H            0.000000000000     1.778185228229    -3.306379358231     1.007825032230
      Gh(O)           0.000000000000    -0.051183389256     2.647614639515    15.994914619570
      Gh(H)          -0.818275415421     1.366111204838     3.592477702244     1.007825032230
      Gh(H)           0.818275415421    -1.468477983349     3.592477702244     1.007825032230

  Running in c1 symmetry.

  Rotational constants: A =      7.04923  B =      0.21573  C =      0.21010 [cm^-1]
  Rotational constants: A = 211330.73244  B =   6467.38754  C =   6298.54055 [MHz]
  Nuclear repulsion =    8.801420354575150

  Charge       = 0
  Multiplicity = 1
  Electrons    = 10
  Nalpha       = 5
  Nbeta        = 5

  ==> Algorithm <==

  SCF Algorithm Type is DF.
  DIIS enabled.
  MOM disabled.
  Fractional occupation disabled.
  Guess Type is SAD.
  Energy threshold   = 1.00e-06
  Density threshold  = 1.00e-06
  Integral threshold = 1.00e-12

  ==> Primary Basis <==

  Basis Set: AUG-CC-PVDZ
    Blend: AUG-CC-PVDZ
    Number of shells: 38
    Number of basis functions: 82
    Number of Cartesian functions: 86
    Spherical Harmonics?: true
    Max angular momentum: 2

   => Loading Basis Set <=

    Name: (AUG-CC-PVDZ AUX)
    Role: JKFIT
    Keyword: DF_BASIS_SCF
    atoms 1, 4     entry O          line   270 file C:\Users\64292\Anaconda3\envs\qm-tools\lib\share\psi4\basis\aug-cc-pvdz-jkfit.gbs 
    atoms 2-3, 5-6 entry H          line    70 file C:\Users\64292\Anaconda3\envs\qm-tools\lib\share\psi4\basis\aug-cc-pvdz-jkfit.gbs 

  ==> Integral Setup <==

  DFHelper Memory: AOs need 0.017 GiB; user supplied 0.349 GiB. Using in-core AOs.

  ==> MemDFJK: Density-Fitted J/K Matrices <==

    J tasked:                   Yes
    K tasked:                   Yes
    wK tasked:                   No
    OpenMP threads:               1
    Memory [MiB]:               357
    Algorithm:                 Core
    Schwarz Cutoff:           1E-12
    Mask sparsity (%):       0.0000
    Fitting Condition:        1E-10

   => Auxiliary Basis Set <=

  Basis Set: (AUG-CC-PVDZ AUX)
    Blend: AUG-CC-PVDZ-JKFIT
    Number of shells: 104
    Number of basis functions: 300
    Number of Cartesian functions: 342
    Spherical Harmonics?: true
    Max angular momentum: 3

  Minimum eigenvalue in the overlap matrix is 1.8747029762E-03.
  Reciprocal condition number of the overlap matrix is 2.5099164640E-04.
    Using symmetric orthogonalization.

  ==> Pre-Iterations <==

  SCF Guess: Superposition of Atomic Densities via on-the-fly atomic UHF (no occupation information).

   -------------------------
    Irrep   Nso     Nmo    
   -------------------------
     A         82      82 
   -------------------------
    Total      82      82
   -------------------------

  ==> Iterations <==

                           Total Energy        Delta E     RMS |[F,P]|

   @DF-RHF iter SAD:   -75.41487085199392   -7.54149e+01   0.00000e+00 
   @DF-RHF iter   1:   -75.94942270541867   -5.34552e-01   5.50658e-03 DIIS/ADIIS
   @DF-RHF iter   2:   -76.00130457311624   -5.18819e-02   3.77636e-03 DIIS/ADIIS
   @DF-RHF iter   3:   -76.03526370941820   -3.39591e-02   2.81178e-04 DIIS/ADIIS
   @DF-RHF iter   4:   -76.03571721260465   -4.53503e-04   6.60471e-05 DIIS
   @DF-RHF iter   5:   -76.03574738761458   -3.01750e-05   1.56451e-05 DIIS
   @DF-RHF iter   6:   -76.03574996395116   -2.57634e-06   3.09581e-06 DIIS
   @DF-RHF iter   7:   -76.03575006761540   -1.03664e-07   5.05877e-07 DIIS
  Energy and wave function converged.


  ==> Post-Iterations <==

    Orbital Energies [Eh]
    ---------------------

    Doubly Occupied:                                                      

       1A    -20.584235     2A     -1.335638     3A     -0.696494  
       4A     -0.577360     5A     -0.506060  

    Virtual:                                                              

       6A      0.024812     7A      0.049772     8A      0.059142  
       9A      0.082763    10A      0.136004    11A      0.144940  
      12A      0.181589    13A      0.196336    14A      0.221565  
      15A      0.227386    16A      0.229502    17A      0.271858  
      18A      0.329352    19A      0.358529    20A      0.366964  
      21A      0.398012    22A      0.406628    23A      0.414483  
      24A      0.437292    25A      0.475175    26A      0.481479  
      27A      0.488716    28A      0.503197    29A      0.562505  
      30A      0.587726    31A      0.637868    32A      0.650745  
      33A      0.766418    34A      0.856280    35A      0.921286  
      36A      0.965340    37A      1.039246    38A      1.110989  
      39A      1.153524    40A      1.176835    41A      1.180455  
      42A      1.205725    43A      1.283486    44A      1.294263  
      45A      1.304429    46A      1.331038    47A      1.396896  
      48A      1.446630    49A      1.512159    50A      1.573657  
      51A      1.755837    52A      1.989226    53A      2.002675  
      54A      2.052092    55A      2.101674    56A      2.315984  
      57A      2.364825    58A      2.381689    59A      2.390611  
      60A      2.453796    61A      2.539563    62A      2.621154  
      63A      2.726644    64A      2.959296    65A      2.992330  
      66A      3.446866    67A      3.675939    68A      3.708625  
      69A      3.728859    70A      3.967762    71A      3.988406  
      72A      4.074296    73A      4.312217    74A      4.908445  
      75A      4.934690    76A      5.060417    77A      5.326163  
      78A      5.377574    79A      5.595329    80A      6.411190  
      81A      6.806336    82A     33.529203  

    Final Occupation by Irrep:
              A 
    DOCC [     5 ]

  @DF-RHF Final Energy:   -76.03575006761540

   => Energetics <=

    Nuclear Repulsion Energy =              8.8014203545751499
    One-Electron Energy =                -122.2747462365914828
    Two-Electron Energy =                  37.4375758144009296
    Total Energy =                        -76.0357500676153961

Computation Completed


Properties will be evaluated at   0.000000,   0.000000,   0.000000 [a0]

Properties computed using the SCF density matrix


 Multipole Moments:

 ------------------------------------------------------------------------------------
     Multipole            Electronic (a.u.)      Nuclear  (a.u.)        Total (a.u.)
 ------------------------------------------------------------------------------------

 L = 1.  Multiply by 2.5417464519 to convert [e a0] to [Debye]
 Dipole X            :         -0.0001252            0.0000000           -0.0001252
 Dipole Y            :         -0.6854900            1.3175347            0.6320447
 Dipole Z            :         27.3990019          -26.9099734            0.4890286
 Magnitude           :                                                    0.7991430

 ------------------------------------------------------------------------------------

*** tstop() called on Lenovo-Y540-Zoha at Tue Sep 27 18:40:42 2022
Module time:
	user time   =        nan seconds =        nan minutes
	system time =        nan seconds =        nan minutes
	total time  =          0 seconds =       0.00 minutes
Total time:
	user time   =        nan seconds =        nan minutes
	system time =        nan seconds =        nan minutes
	total time  =        861 seconds =      14.35 minutes

    Psi4 stopped on: Tuesday, 27 September 2022 06:40PM
    Psi4 wall time for execution: 0:00:00.99


    -----------------------------------------------------------------------
          Psi4: An Open-Source Ab Initio Electronic Structure Package
                               Psi4 1.6.1 release

                         Git: Rev {HEAD} 5b9f6e3 


    D. G. A. Smith, L. A. Burns, A. C. Simmonett, R. M. Parrish,
    M. C. Schieber, R. Galvelis, P. Kraus, H. Kruse, R. Di Remigio,
    A. Alenaizan, A. M. James, S. Lehtola, J. P. Misiewicz, M. Scheurer,
    R. A. Shaw, J. B. Schriber, Y. Xie, Z. L. Glick, D. A. Sirianni,
    J. S. O'Brien, J. M. Waldrop, A. Kumar, E. G. Hohenstein,
    B. P. Pritchard, B. R. Brooks, H. F. Schaefer III, A. Yu. Sokolov,
    K. Patkowski, A. E. DePrince III, U. Bozkaya, R. A. King,
    F. A. Evangelista, J. M. Turney, T. D. Crawford, C. D. Sherrill,
    J. Chem. Phys. 152(18) 184108 (2020). https://doi.org/10.1063/5.0006002

                            Additional Code Authors
    E. T. Seidl, C. L. Janssen, E. F. Valeev, M. L. Leininger,
    J. F. Gonthier, R. M. Richard, H. R. McAlexander, M. Saitow, X. Wang,
    P. Verma, M. H. Lechner, and A. Jiang

             Previous Authors, Complete List of Code Contributors,
                       and Citations for Specific Modules
    https://github.com/psi4/psi4/blob/master/codemeta.json
    https://github.com/psi4/psi4/graphs/contributors
    http://psicode.org/psi4manual/master/introduction.html#citing-psifour

    -----------------------------------------------------------------------


    Psi4 started on: Tuesday, 27 September 2022 06:25PM

    Process ID: 10544
    Host:       Lenovo-Y540-Zoha
    PSIDATADIR: C:\Users\64292\Anaconda3\envs\qm-tools\lib\share\psi4
    Memory:     476.8 MiB
    Threads:    1
    
  ==> Input QCSchema <==

--------------------------------------------------------------------------
{'driver': 'energy',
 'extras': {'psiapi': True, 'wfn_qcvars_only': True},
 'id': None,
 'keywords': {'function_kwargs': {}},
 'model': {'basis': 'aug-cc-pvdz', 'method': 'scf'},
 'molecule': {'atom_labels': ['1', '2', '3', '5', '6', '7'],
              'atomic_numbers': [8, 1, 1, 8, 1, 1],
              'fix_com': True,
              'fix_orientation': True,
              'fragment_charges': [0.0, 0.0],
              'fragment_multiplicities': [1, 1],
              'fragments': [[0, 1, 2], [3, 4, 5]],
              'geometry': [6.164287706146122e-18, -0.05118338925575479, -2.8325911243126685, 6.164287706146122e-18,
                           -0.05118338925575479, -0.9428649988548403, 6.164287706146122e-18, 1.7781852282291912,
                           -3.3063793582306, 6.164287706146122e-18, -0.05118338925575479, 2.6476146395150337,
                           -0.8182754154208095, 1.3661112048376158, 3.592477702243948, 0.8182754154208093,
                           -1.4684779833491262, 3.592477702243947],
              'mass_numbers': [16, 1, 1, 16, 1, 1],
              'masses': [15.99491461957, 1.00782503223, 1.00782503223, 15.99491461957, 1.00782503223, 1.00782503223],
              'molecular_charge': 0.0,
              'molecular_multiplicity': 1,
              'name': 'H4O2',
              'provenance': {'creator': 'QCElemental',
                             'routine': 'qcelemental.molparse.from_string',
                             'version': 'v0.25.0'},
              'real': [True, True, True, True, True, True],
              'schema_name': 'qcschema_molecule',
              'schema_version': 2,
              'symbols': ['O', 'H', 'H', 'O', 'H', 'H'],
              'validated': True},
 'protocols': {'stdout': True},
 'provenance': {'creator': 'QCElemental', 'routine': 'qcelemental.models.results', 'version': 'v0.25.0'},
 'schema_name': 'qcschema_input',
 'schema_version': 1}
--------------------------------------------------------------------------

Scratch directory: C:\Users\64292\AppData\Local\Temp/

*** tstart() called on Lenovo-Y540-Zoha
*** at Tue Sep 27 18:40:43 2022

   => Loading Basis Set <=

    Name: AUG-CC-PVDZ
    Role: ORBITAL
    Keyword: BASIS
    atoms 1, 4     entry O          line   254 file C:\Users\64292\Anaconda3\envs\qm-tools\lib\share\psi4\basis\aug-cc-pvdz.gbs 
    atoms 2-3, 5-6 entry H          line    40 file C:\Users\64292\Anaconda3\envs\qm-tools\lib\share\psi4\basis\aug-cc-pvdz.gbs 


         ---------------------------------------------------------
                                   SCF
               by Justin Turney, Rob Parrish, Andy Simmonett
                          and Daniel G. A. Smith
                              RHF Reference
                        1 Threads,    476 MiB Core
         ---------------------------------------------------------

  ==> Geometry <==

    Molecular point group: c1
    Full point group: C1

    Geometry (in Bohr), charge = 0, multiplicity = 1:

       Center              X                  Y                   Z               Mass       
    ------------   -----------------  -----------------  -----------------  -----------------
         O            0.000000000000    -0.051183389256    -2.832591124313    15.994914619570
         H            0.000000000000    -0.051183389256    -0.942864998855     1.007825032230
         H            0.000000000000     1.778185228229    -3.306379358231     1.007825032230
         O            0.000000000000    -0.051183389256     2.647614639515    15.994914619570
         H           -0.818275415421     1.366111204838     3.592477702244     1.007825032230
         H            0.818275415421    -1.468477983349     3.592477702244     1.007825032230

  Running in c1 symmetry.

  Rotational constants: A =      7.04923  B =      0.21573  C =      0.21010 [cm^-1]
  Rotational constants: A = 211330.73244  B =   6467.38754  C =   6298.54055 [MHz]
  Nuclear repulsion =   35.866752823976583

  Charge       = 0
  Multiplicity = 1
  Electrons    = 20
  Nalpha       = 10
  Nbeta        = 10

  ==> Algorithm <==

  SCF Algorithm Type is DF.
  DIIS enabled.
  MOM disabled.
  Fractional occupation disabled.
  Guess Type is SAD.
  Energy threshold   = 1.00e-06
  Density threshold  = 1.00e-06
  Integral threshold = 1.00e-12

  ==> Primary Basis <==

  Basis Set: AUG-CC-PVDZ
    Blend: AUG-CC-PVDZ
    Number of shells: 38
    Number of basis functions: 82
    Number of Cartesian functions: 86
    Spherical Harmonics?: true
    Max angular momentum: 2

   => Loading Basis Set <=

    Name: (AUG-CC-PVDZ AUX)
    Role: JKFIT
    Keyword: DF_BASIS_SCF
    atoms 1, 4     entry O          line   270 file C:\Users\64292\Anaconda3\envs\qm-tools\lib\share\psi4\basis\aug-cc-pvdz-jkfit.gbs 
    atoms 2-3, 5-6 entry H          line    70 file C:\Users\64292\Anaconda3\envs\qm-tools\lib\share\psi4\basis\aug-cc-pvdz-jkfit.gbs 

  ==> Integral Setup <==

  DFHelper Memory: AOs need 0.017 GiB; user supplied 0.349 GiB. Using in-core AOs.

  ==> MemDFJK: Density-Fitted J/K Matrices <==

    J tasked:                   Yes
    K tasked:                   Yes
    wK tasked:                   No
    OpenMP threads:               1
    Memory [MiB]:               357
    Algorithm:                 Core
    Schwarz Cutoff:           1E-12
    Mask sparsity (%):       0.0000
    Fitting Condition:        1E-10

   => Auxiliary Basis Set <=

  Basis Set: (AUG-CC-PVDZ AUX)
    Blend: AUG-CC-PVDZ-JKFIT
    Number of shells: 104
    Number of basis functions: 300
    Number of Cartesian functions: 342
    Spherical Harmonics?: true
    Max angular momentum: 3

  Minimum eigenvalue in the overlap matrix is 1.8747029762E-03.
  Reciprocal condition number of the overlap matrix is 2.5099164640E-04.
    Using symmetric orthogonalization.

  ==> Pre-Iterations <==

  SCF Guess: Superposition of Atomic Densities via on-the-fly atomic UHF (no occupation information).

   -------------------------
    Irrep   Nso     Nmo    
   -------------------------
     A         82      82 
   -------------------------
    Total      82      82
   -------------------------

  ==> Iterations <==

                           Total Energy        Delta E     RMS |[F,P]|

   @DF-RHF iter SAD:  -150.90514317026799   -1.50905e+02   0.00000e+00 
   @DF-RHF iter   1:  -151.91331599576276   -1.00817e+00   7.48956e-03 DIIS/ADIIS
   @DF-RHF iter   2:  -152.01359049209265   -1.00274e-01   4.89745e-03 DIIS/ADIIS
   @DF-RHF iter   3:  -152.07032682988969   -5.67363e-02   4.15815e-04 DIIS/ADIIS
   @DF-RHF iter   4:  -152.07131204263851   -9.85213e-04   9.28339e-05 DIIS
   @DF-RHF iter   5:  -152.07136885014120   -5.68075e-05   3.34899e-05 DIIS
   @DF-RHF iter   6:  -152.07137511627820   -6.26614e-06   1.32298e-05 DIIS
   @DF-RHF iter   7:  -152.07137616634759   -1.05007e-06   2.48275e-06 DIIS
   @DF-RHF iter   8:  -152.07137623286320   -6.65156e-08   4.72276e-07 DIIS
  Energy and wave function converged.


  ==> Post-Iterations <==

    Orbital Energies [Eh]
    ---------------------

    Doubly Occupied:                                                      

       1A    -20.603295     2A    -20.545626     3A     -1.356875  
       4A     -1.300633     5A     -0.749704     6A     -0.672688  
       7A     -0.586133     8A     -0.534810     9A     -0.530363  
      10A     -0.470945  

    Virtual:                                                              

      11A      0.024830    12A      0.049082    13A      0.059452  
      14A      0.090995    15A      0.173717    16A      0.178554  
      17A      0.198876    18A      0.212926    19A      0.234907  
      20A      0.236380    21A      0.248325    22A      0.274283  
      23A      0.304586    24A      0.312361    25A      0.350764  
      26A      0.368877    27A      0.415668    28A      0.433831  
      29A      0.456879    30A      0.480303    31A      0.519270  
      32A      0.535935    33A      0.540741    34A      0.594131  
      35A      0.630469    36A      0.652005    37A      0.673373  
      38A      0.786705    39A      0.861812    40A      0.870634  
      41A      0.947746    42A      0.989703    43A      1.098531  
      44A      1.120206    45A      1.143648    46A      1.187402  
      47A      1.196590    48A      1.227996    49A      1.342191  
      50A      1.444110    51A      1.463723    52A      1.516192  
      53A      1.540654    54A      1.621473    55A      1.634372  
      56A      1.958395    57A      1.999183    58A      2.011299  
      59A      2.028392    60A      2.041056    61A      2.052942  
      62A      2.156931    63A      2.380171    64A      2.395332  
      65A      2.467189    66A      2.497671    67A      2.529629  
      68A      2.759294    69A      2.794460    70A      2.834466  
      71A      2.999118    72A      3.037144    73A      3.672004  
      74A      3.680581    75A      3.710449    76A      3.744047  
      77A      3.770101    78A      3.826051    79A      4.090661  
      80A      4.120165    81A      4.177074    82A      4.378835  

    Final Occupation by Irrep:
              A 
    DOCC [    10 ]

  @DF-RHF Final Energy:  -152.07137623286320

   => Energetics <=

    Nuclear Repulsion Energy =             35.8667528239765829
    One-Electron Energy =                -281.1740993776310233
    Two-Electron Energy =                  93.2359703207912389
    Total Energy =                       -152.0713762328632015

Computation Completed


Properties will be evaluated at   0.000000,   0.000000,   0.000000 [a0]

Properties computed using the SCF density matrix


 Multipole Moments:

 ------------------------------------------------------------------------------------
     Multipole            Electronic (a.u.)      Nuclear  (a.u.)        Total (a.u.)
 ------------------------------------------------------------------------------------

 L = 1.  Multiply by 2.5417464519 to convert [e a0] to [Debye]
 Dipole X            :          0.0013837           -0.0000000            0.0013837
 Dipole Y            :         -0.2046786            0.8057008            0.6010222
 Dipole Z            :         -0.0095966            1.4558992            1.4463026
 Magnitude           :                                                    1.5662123

 ------------------------------------------------------------------------------------

*** tstop() called on Lenovo-Y540-Zoha at Tue Sep 27 18:40:43 2022
Module time:
	user time   =        nan seconds =        nan minutes
	system time =        nan seconds =        nan minutes
	total time  =          0 seconds =       0.00 minutes
Total time:
	user time   =        nan seconds =        nan minutes
	system time =        nan seconds =        nan minutes
	total time  =        862 seconds =      14.37 minutes

    Psi4 stopped on: Tuesday, 27 September 2022 06:40PM
    Psi4 wall time for execution: 0:00:01.03


  //>>>>>>>>>>>>>>>>>>>>>>>>>>>>>>>>>>>//
  //          ManyBody Results         //
  //<<<<<<<<<<<<<<<<<<<<<<<<<<<<<<<<<<<//


   ==> N-Body: Counterpoise Corrected (CP) energies <==

        n-Body     Total Energy            Interaction Energy                          N-body Contribution to Interaction Energy
                   [Eh]                    [Eh]                  [kcal/mol]            [Eh]                  [kcal/mol]
             1  N/A                         0.000000000000        0.000000000000        0.000000000000        0.000000000000
  FULL/RTN   2  N/A                        -0.005632481521       -3.534435515281       -0.005632481521       -3.534435515281

