
Scratch directory: C:\Users\64292\AppData\Local\Temp/

  //>>>>>>>>>>>>>>>>>>>>>>>>>>>>>>>>>>>>>//
  // ManyBody Setup: N-Body Levels [1, 2]//
  //<<<<<<<<<<<<<<<<<<<<<<<<<<<<<<<<<<<<<//

        Number of 1-body computations:     2
        Number of 2-body computations:     1

    -----------------------------------------------------------------------
          Psi4: An Open-Source Ab Initio Electronic Structure Package
                               Psi4 1.6.1 release

                         Git: Rev {HEAD} 5b9f6e3 


    D. G. A. Smith, L. A. Burns, A. C. Simmonett, R. M. Parrish,
    M. C. Schieber, R. Galvelis, P. Kraus, H. Kruse, R. Di Remigio,
    A. Alenaizan, A. M. James, S. Lehtola, J. P. Misiewicz, M. Scheurer,
    R. A. Shaw, J. B. Schriber, Y. Xie, Z. L. Glick, D. A. Sirianni,
    J. S. O'Brien, J. M. Waldrop, A. Kumar, E. G. Hohenstein,
    B. P. Pritchard, B. R. Brooks, H. F. Schaefer III, A. Yu. Sokolov,
    K. Patkowski, A. E. DePrince III, U. Bozkaya, R. A. King,
    F. A. Evangelista, J. M. Turney, T. D. Crawford, C. D. Sherrill,
    J. Chem. Phys. 152(18) 184108 (2020). https://doi.org/10.1063/5.0006002

                            Additional Code Authors
    E. T. Seidl, C. L. Janssen, E. F. Valeev, M. L. Leininger,
    J. F. Gonthier, R. M. Richard, H. R. McAlexander, M. Saitow, X. Wang,
    P. Verma, M. H. Lechner, and A. Jiang

             Previous Authors, Complete List of Code Contributors,
                       and Citations for Specific Modules
    https://github.com/psi4/psi4/blob/master/codemeta.json
    https://github.com/psi4/psi4/graphs/contributors
    http://psicode.org/psi4manual/master/introduction.html#citing-psifour

    -----------------------------------------------------------------------


    Psi4 started on: Tuesday, 27 September 2022 06:25PM

    Process ID: 10544
    Host:       Lenovo-Y540-Zoha
    PSIDATADIR: C:\Users\64292\Anaconda3\envs\qm-tools\lib\share\psi4
    Memory:     476.8 MiB
    Threads:    1
    
  ==> Input QCSchema <==

--------------------------------------------------------------------------
{'driver': 'energy',
 'extras': {'psiapi': True, 'wfn_qcvars_only': True},
 'id': None,
 'keywords': {'function_kwargs': {}},
 'model': {'basis': 'aug-cc-pvdz', 'method': 'scf'},
 'molecule': {'atom_labels': ['1', '2', '3', '5', '6', '7'],
              'atomic_numbers': [8, 1, 1, 8, 1, 1],
              'fix_com': True,
              'fix_orientation': True,
              'fragment_charges': [0.0, 0.0],
              'fragment_multiplicities': [1, 1],
              'fragments': [[0, 1, 2], [3, 4, 5]],
              'geometry': [0.05118338925575477, 2.7381048180397762, 0.0, 0.05118338925575477, 0.8483786925819481, 0.0,
                           -1.7781852282291912, 3.211893051957708, 0.0, 0.05118338925575477, -2.5531283332421424, 0.0,
                           1.687734220097374, -3.497991395971056, 0.0, -1.585367441585863, -3.4979913959710567, 0.0],
              'mass_numbers': [16, 1, 1, 16, 1, 1],
              'masses': [15.99491461957, 1.00782503223, 1.00782503223, 15.99491461957, 1.00782503223, 1.00782503223],
              'molecular_charge': 0.0,
              'molecular_multiplicity': 1,
              'name': 'H4O2',
              'provenance': {'creator': 'QCElemental',
                             'routine': 'qcelemental.molparse.from_string',
                             'version': 'v0.25.0'},
              'real': [False, False, False, True, True, True],
              'schema_name': 'qcschema_molecule',
              'schema_version': 2,
              'symbols': ['O', 'H', 'H', 'O', 'H', 'H'],
              'validated': True},
 'protocols': {'stdout': True},
 'provenance': {'creator': 'QCElemental', 'routine': 'qcelemental.models.results', 'version': 'v0.25.0'},
 'schema_name': 'qcschema_input',
 'schema_version': 1}
--------------------------------------------------------------------------

Scratch directory: C:\Users\64292\AppData\Local\Temp/

*** tstart() called on Lenovo-Y540-Zoha
*** at Tue Sep 27 18:39:48 2022

   => Loading Basis Set <=

    Name: AUG-CC-PVDZ
    Role: ORBITAL
    Keyword: BASIS
    atoms 1, 4     entry O          line   254 file C:\Users\64292\Anaconda3\envs\qm-tools\lib\share\psi4\basis\aug-cc-pvdz.gbs 
    atoms 2-3, 5-6 entry H          line    40 file C:\Users\64292\Anaconda3\envs\qm-tools\lib\share\psi4\basis\aug-cc-pvdz.gbs 


         ---------------------------------------------------------
                                   SCF
               by Justin Turney, Rob Parrish, Andy Simmonett
                          and Daniel G. A. Smith
                              RHF Reference
                        1 Threads,    476 MiB Core
         ---------------------------------------------------------

  ==> Geometry <==

    Molecular point group: cs
    Full point group: Cs

    Geometry (in Bohr), charge = 0, multiplicity = 1:

       Center              X                  Y                   Z               Mass       
    ------------   -----------------  -----------------  -----------------  -----------------
      Gh(O)           0.051183389256     2.738104818040     0.000000000000    15.994914619570
      Gh(H)           0.051183389256     0.848378692582     0.000000000000     1.007825032230
      Gh(H)          -1.778185228229     3.211893051958     0.000000000000     1.007825032230
         O            0.051183389256    -2.553128333242     0.000000000000    15.994914619570
         H            1.687734220097    -3.497991395971     0.000000000000     1.007825032230
         H           -1.585367441586    -3.497991395971     0.000000000000     1.007825032230

  Running in cs symmetry.

  Rotational constants: A =      7.05125  B =      0.23144  C =      0.22409 [cm^-1]
  Rotational constants: A = 211391.04720  B =   6938.51415  C =   6718.00815 [MHz]
  Nuclear repulsion =    8.772355975749340

  Charge       = 0
  Multiplicity = 1
  Electrons    = 10
  Nalpha       = 5
  Nbeta        = 5

  ==> Algorithm <==

  SCF Algorithm Type is DF.
  DIIS enabled.
  MOM disabled.
  Fractional occupation disabled.
  Guess Type is SAD.
  Energy threshold   = 1.00e-06
  Density threshold  = 1.00e-06
  Integral threshold = 1.00e-12

  ==> Primary Basis <==

  Basis Set: AUG-CC-PVDZ
    Blend: AUG-CC-PVDZ
    Number of shells: 38
    Number of basis functions: 82
    Number of Cartesian functions: 86
    Spherical Harmonics?: true
    Max angular momentum: 2

   => Loading Basis Set <=

    Name: (AUG-CC-PVDZ AUX)
    Role: JKFIT
    Keyword: DF_BASIS_SCF
    atoms 1, 4     entry O          line   270 file C:\Users\64292\Anaconda3\envs\qm-tools\lib\share\psi4\basis\aug-cc-pvdz-jkfit.gbs 
    atoms 2-3, 5-6 entry H          line    70 file C:\Users\64292\Anaconda3\envs\qm-tools\lib\share\psi4\basis\aug-cc-pvdz-jkfit.gbs 

  ==> Integral Setup <==

  DFHelper Memory: AOs need 0.017 GiB; user supplied 0.349 GiB. Using in-core AOs.

  ==> MemDFJK: Density-Fitted J/K Matrices <==

    J tasked:                   Yes
    K tasked:                   Yes
    wK tasked:                   No
    OpenMP threads:               1
    Memory [MiB]:               357
    Algorithm:                 Core
    Schwarz Cutoff:           1E-12
    Mask sparsity (%):       0.0000
    Fitting Condition:        1E-10

   => Auxiliary Basis Set <=

  Basis Set: (AUG-CC-PVDZ AUX)
    Blend: AUG-CC-PVDZ-JKFIT
    Number of shells: 104
    Number of basis functions: 300
    Number of Cartesian functions: 342
    Spherical Harmonics?: true
    Max angular momentum: 3

  Minimum eigenvalue in the overlap matrix is 1.6942796967E-03.
  Reciprocal condition number of the overlap matrix is 2.2257284191E-04.
    Using symmetric orthogonalization.

  ==> Pre-Iterations <==

  SCF Guess: Superposition of Atomic Densities via on-the-fly atomic UHF (no occupation information).

   -------------------------
    Irrep   Nso     Nmo    
   -------------------------
     A'        60      60 
     A"        22      22 
   -------------------------
    Total      82      82
   -------------------------

  ==> Iterations <==

                           Total Energy        Delta E     RMS |[F,P]|

   @DF-RHF iter SAD:   -75.40236268851747   -7.54024e+01   0.00000e+00 
   @DF-RHF iter   1:   -75.94525274862868   -5.42890e-01   7.07138e-03 DIIS/ADIIS
   @DF-RHF iter   2:   -75.99645329708322   -5.12005e-02   4.79083e-03 DIIS/ADIIS
   @DF-RHF iter   3:   -76.02953448433084   -3.30812e-02   3.65278e-04 DIIS/ADIIS
   @DF-RHF iter   4:   -76.03001322364523   -4.78739e-04   8.56452e-05 DIIS
   @DF-RHF iter   5:   -76.03004587674204   -3.26531e-05   2.09397e-05 DIIS
   @DF-RHF iter   6:   -76.03004896241575   -3.08567e-06   4.49617e-06 DIIS
   @DF-RHF iter   7:   -76.03004911810621   -1.55690e-07   8.27130e-07 DIIS
  Energy and wave function converged.


  ==> Post-Iterations <==

    Orbital Energies [Eh]
    ---------------------

    Doubly Occupied:                                                      

       1Ap   -20.575889     2Ap    -1.325798     3Ap    -0.721126  
       4Ap    -0.548185     1App   -0.500584  

    Virtual:                                                              

       5Ap     0.032455     6Ap     0.053448     7Ap     0.056979  
       8Ap     0.086671     2App    0.158356     9Ap     0.176080  
      10Ap     0.182639    11Ap     0.198638    12Ap     0.219830  
       3App    0.220772    13Ap     0.243054    14Ap     0.252297  
      15Ap     0.317640    16Ap     0.328862     4App    0.371804  
      17Ap     0.407393     5App    0.454208     6App    0.462472  
      18Ap     0.473233    19Ap     0.497121    20Ap     0.526866  
      21Ap     0.538178     7App    0.543075    22Ap     0.576421  
      23Ap     0.646123    24Ap     0.650257    25Ap     0.672651  
      26Ap     0.737874    27Ap     0.880950    28Ap     0.922805  
       8App    0.933898    29Ap     0.975086     9App    1.146224  
      30Ap     1.150978    10App    1.158779    31Ap     1.190191  
      32Ap     1.242529    33Ap     1.296516    11App    1.341877  
      12App    1.403838    34Ap     1.414512    35Ap     1.464243  
      36Ap     1.523842    13App    1.582200    37Ap     1.590007  
      38Ap     1.762279    39Ap     2.023531    14App    2.048808  
      15App    2.054309    40Ap     2.184897    16App    2.386318  
      41Ap     2.407654    42Ap     2.426870    43Ap     2.477232  
      17App    2.504799    44Ap     2.557767    45Ap     2.665796  
      46Ap     2.832960    47Ap     2.945706    48Ap     2.985473  
      49Ap     3.460830    18App    3.701051    19App    3.728816  
      50Ap     3.849038    51Ap     3.920621    52Ap     4.110909  
      53Ap     4.148769    54Ap     4.211033    20App    4.915862  
      55Ap     4.964870    21App    5.000184    56Ap     5.218923  
      57Ap     5.506434    22App    5.673737    58Ap     6.509044  
      59Ap     6.968553    60Ap    33.579992  

    Final Occupation by Irrep:
             Ap   App 
    DOCC [     4,    1 ]

  @DF-RHF Final Energy:   -76.03004911810621

   => Energetics <=

    Nuclear Repulsion Energy =              8.7723559757493401
    One-Electron Energy =                -122.2616095597550157
    Two-Electron Energy =                  37.4592044658994823
    Total Energy =                        -76.0300491181062057

Computation Completed


Properties will be evaluated at   0.000000,   0.000000,   0.000000 [a0]

Properties computed using the SCF density matrix


 Multipole Moments:

 ------------------------------------------------------------------------------------
     Multipole            Electronic (a.u.)      Nuclear  (a.u.)        Total (a.u.)
 ------------------------------------------------------------------------------------

 L = 1.  Multiply by 2.5417464519 to convert [e a0] to [Debye]
 Dipole X            :         -0.5116214            0.5118339            0.0002125
 Dipole Y            :         26.7370422          -27.4210095           -0.6839673
 Dipole Z            :          0.0000000            0.0000000            0.0000000
 Magnitude           :                                                    0.6839673

 ------------------------------------------------------------------------------------

*** tstop() called on Lenovo-Y540-Zoha at Tue Sep 27 18:39:48 2022
Module time:
	user time   =        nan seconds =        nan minutes
	system time =        nan seconds =        nan minutes
	total time  =          0 seconds =       0.00 minutes
Total time:
	user time   =        nan seconds =        nan minutes
	system time =        nan seconds =        nan minutes
	total time  =        807 seconds =      13.45 minutes

    Psi4 stopped on: Tuesday, 27 September 2022 06:39PM
    Psi4 wall time for execution: 0:00:01.01


    -----------------------------------------------------------------------
          Psi4: An Open-Source Ab Initio Electronic Structure Package
                               Psi4 1.6.1 release

                         Git: Rev {HEAD} 5b9f6e3 


    D. G. A. Smith, L. A. Burns, A. C. Simmonett, R. M. Parrish,
    M. C. Schieber, R. Galvelis, P. Kraus, H. Kruse, R. Di Remigio,
    A. Alenaizan, A. M. James, S. Lehtola, J. P. Misiewicz, M. Scheurer,
    R. A. Shaw, J. B. Schriber, Y. Xie, Z. L. Glick, D. A. Sirianni,
    J. S. O'Brien, J. M. Waldrop, A. Kumar, E. G. Hohenstein,
    B. P. Pritchard, B. R. Brooks, H. F. Schaefer III, A. Yu. Sokolov,
    K. Patkowski, A. E. DePrince III, U. Bozkaya, R. A. King,
    F. A. Evangelista, J. M. Turney, T. D. Crawford, C. D. Sherrill,
    J. Chem. Phys. 152(18) 184108 (2020). https://doi.org/10.1063/5.0006002

                            Additional Code Authors
    E. T. Seidl, C. L. Janssen, E. F. Valeev, M. L. Leininger,
    J. F. Gonthier, R. M. Richard, H. R. McAlexander, M. Saitow, X. Wang,
    P. Verma, M. H. Lechner, and A. Jiang

             Previous Authors, Complete List of Code Contributors,
                       and Citations for Specific Modules
    https://github.com/psi4/psi4/blob/master/codemeta.json
    https://github.com/psi4/psi4/graphs/contributors
    http://psicode.org/psi4manual/master/introduction.html#citing-psifour

    -----------------------------------------------------------------------


    Psi4 started on: Tuesday, 27 September 2022 06:25PM

    Process ID: 10544
    Host:       Lenovo-Y540-Zoha
    PSIDATADIR: C:\Users\64292\Anaconda3\envs\qm-tools\lib\share\psi4
    Memory:     476.8 MiB
    Threads:    1
    
  ==> Input QCSchema <==

--------------------------------------------------------------------------
{'driver': 'energy',
 'extras': {'psiapi': True, 'wfn_qcvars_only': True},
 'id': None,
 'keywords': {'function_kwargs': {}},
 'model': {'basis': 'aug-cc-pvdz', 'method': 'scf'},
 'molecule': {'atom_labels': ['1', '2', '3', '5', '6', '7'],
              'atomic_numbers': [8, 1, 1, 8, 1, 1],
              'fix_com': True,
              'fix_orientation': True,
              'fragment_charges': [0.0, 0.0],
              'fragment_multiplicities': [1, 1],
              'fragments': [[0, 1, 2], [3, 4, 5]],
              'geometry': [0.05118338925575477, 2.7381048180397762, 0.0, 0.05118338925575477, 0.8483786925819481, 0.0,
                           -1.7781852282291912, 3.211893051957708, 0.0, 0.05118338925575477, -2.5531283332421424, 0.0,
                           1.687734220097374, -3.497991395971056, 0.0, -1.585367441585863, -3.4979913959710567, 0.0],
              'mass_numbers': [16, 1, 1, 16, 1, 1],
              'masses': [15.99491461957, 1.00782503223, 1.00782503223, 15.99491461957, 1.00782503223, 1.00782503223],
              'molecular_charge': 0.0,
              'molecular_multiplicity': 1,
              'name': 'H4O2',
              'provenance': {'creator': 'QCElemental',
                             'routine': 'qcelemental.molparse.from_string',
                             'version': 'v0.25.0'},
              'real': [True, True, True, False, False, False],
              'schema_name': 'qcschema_molecule',
              'schema_version': 2,
              'symbols': ['O', 'H', 'H', 'O', 'H', 'H'],
              'validated': True},
 'protocols': {'stdout': True},
 'provenance': {'creator': 'QCElemental', 'routine': 'qcelemental.models.results', 'version': 'v0.25.0'},
 'schema_name': 'qcschema_input',
 'schema_version': 1}
--------------------------------------------------------------------------

Scratch directory: C:\Users\64292\AppData\Local\Temp/

*** tstart() called on Lenovo-Y540-Zoha
*** at Tue Sep 27 18:39:49 2022

   => Loading Basis Set <=

    Name: AUG-CC-PVDZ
    Role: ORBITAL
    Keyword: BASIS
    atoms 1, 4     entry O          line   254 file C:\Users\64292\Anaconda3\envs\qm-tools\lib\share\psi4\basis\aug-cc-pvdz.gbs 
    atoms 2-3, 5-6 entry H          line    40 file C:\Users\64292\Anaconda3\envs\qm-tools\lib\share\psi4\basis\aug-cc-pvdz.gbs 


         ---------------------------------------------------------
                                   SCF
               by Justin Turney, Rob Parrish, Andy Simmonett
                          and Daniel G. A. Smith
                              RHF Reference
                        1 Threads,    476 MiB Core
         ---------------------------------------------------------

  ==> Geometry <==

    Molecular point group: cs
    Full point group: Cs

    Geometry (in Bohr), charge = 0, multiplicity = 1:

       Center              X                  Y                   Z               Mass       
    ------------   -----------------  -----------------  -----------------  -----------------
         O            0.051183389256     2.738104818040     0.000000000000    15.994914619570
         H            0.051183389256     0.848378692582     0.000000000000     1.007825032230
         H           -1.778185228229     3.211893051958     0.000000000000     1.007825032230
      Gh(O)           0.051183389256    -2.553128333242     0.000000000000    15.994914619570
      Gh(H)           1.687734220097    -3.497991395971     0.000000000000     1.007825032230
      Gh(H)          -1.585367441586    -3.497991395971     0.000000000000     1.007825032230

  Running in cs symmetry.

  Rotational constants: A =      7.05125  B =      0.23144  C =      0.22409 [cm^-1]
  Rotational constants: A = 211391.04720  B =   6938.51415  C =   6718.00815 [MHz]
  Nuclear repulsion =    8.801420354575150

  Charge       = 0
  Multiplicity = 1
  Electrons    = 10
  Nalpha       = 5
  Nbeta        = 5

  ==> Algorithm <==

  SCF Algorithm Type is DF.
  DIIS enabled.
  MOM disabled.
  Fractional occupation disabled.
  Guess Type is SAD.
  Energy threshold   = 1.00e-06
  Density threshold  = 1.00e-06
  Integral threshold = 1.00e-12

  ==> Primary Basis <==

  Basis Set: AUG-CC-PVDZ
    Blend: AUG-CC-PVDZ
    Number of shells: 38
    Number of basis functions: 82
    Number of Cartesian functions: 86
    Spherical Harmonics?: true
    Max angular momentum: 2

   => Loading Basis Set <=

    Name: (AUG-CC-PVDZ AUX)
    Role: JKFIT
    Keyword: DF_BASIS_SCF
    atoms 1, 4     entry O          line   270 file C:\Users\64292\Anaconda3\envs\qm-tools\lib\share\psi4\basis\aug-cc-pvdz-jkfit.gbs 
    atoms 2-3, 5-6 entry H          line    70 file C:\Users\64292\Anaconda3\envs\qm-tools\lib\share\psi4\basis\aug-cc-pvdz-jkfit.gbs 

  ==> Integral Setup <==

  DFHelper Memory: AOs need 0.017 GiB; user supplied 0.349 GiB. Using in-core AOs.

  ==> MemDFJK: Density-Fitted J/K Matrices <==

    J tasked:                   Yes
    K tasked:                   Yes
    wK tasked:                   No
    OpenMP threads:               1
    Memory [MiB]:               357
    Algorithm:                 Core
    Schwarz Cutoff:           1E-12
    Mask sparsity (%):       0.0000
    Fitting Condition:        1E-10

   => Auxiliary Basis Set <=

  Basis Set: (AUG-CC-PVDZ AUX)
    Blend: AUG-CC-PVDZ-JKFIT
    Number of shells: 104
    Number of basis functions: 300
    Number of Cartesian functions: 342
    Spherical Harmonics?: true
    Max angular momentum: 3

  Minimum eigenvalue in the overlap matrix is 1.6942796967E-03.
  Reciprocal condition number of the overlap matrix is 2.2257284191E-04.
    Using symmetric orthogonalization.

  ==> Pre-Iterations <==

  SCF Guess: Superposition of Atomic Densities via on-the-fly atomic UHF (no occupation information).

   -------------------------
    Irrep   Nso     Nmo    
   -------------------------
     A'        60      60 
     A"        22      22 
   -------------------------
    Total      82      82
   -------------------------

  ==> Iterations <==

                           Total Energy        Delta E     RMS |[F,P]|

   @DF-RHF iter SAD:   -75.41487081335659   -7.54149e+01   0.00000e+00 
   @DF-RHF iter   1:   -75.94942643453744   -5.34556e-01   7.06646e-03 DIIS/ADIIS
   @DF-RHF iter   2:   -76.00130899600126   -5.18826e-02   4.84634e-03 DIIS/ADIIS
   @DF-RHF iter   3:   -76.03526284656169   -3.39539e-02   3.67642e-04 DIIS/ADIIS
   @DF-RHF iter   4:   -76.03572401711318   -4.61171e-04   8.46531e-05 DIIS
   @DF-RHF iter   5:   -76.03575418317172   -3.01661e-05   2.01012e-05 DIIS
   @DF-RHF iter   6:   -76.03575676713670   -2.58396e-06   3.97240e-06 DIIS
   @DF-RHF iter   7:   -76.03575687082552   -1.03689e-07   6.48483e-07 DIIS
  Energy and wave function converged.


  ==> Post-Iterations <==

    Orbital Energies [Eh]
    ---------------------

    Doubly Occupied:                                                      

       1Ap   -20.584222     2Ap    -1.335639     3Ap    -0.696496  
       4Ap    -0.577359     1App   -0.506053  

    Virtual:                                                              

       5Ap     0.024851     6Ap     0.049731     7Ap     0.059687  
       8Ap     0.084829     2App    0.138016     9Ap     0.141452  
      10Ap     0.181537    11Ap     0.198056     3App    0.223334  
      12Ap     0.226962    13Ap     0.231078    14Ap     0.273151  
      15Ap     0.330464    16Ap     0.356042    17Ap     0.382590  
       4App    0.391841    18Ap     0.397143     5App    0.423808  
       6App    0.453050    19Ap     0.477222     7App    0.480395  
      20Ap     0.481296    21Ap     0.497220    22Ap     0.572569  
      23Ap     0.588664    24Ap     0.650879    25Ap     0.655711  
      26Ap     0.784779    27Ap     0.862475     8App    0.938002  
      28Ap     0.954691    29Ap     1.035731     9App    1.111279  
      30Ap     1.156205    31Ap     1.180094    10App    1.186665  
      32Ap     1.205982    33Ap     1.290978    11App    1.292450  
      34Ap     1.312055    12App    1.327465    35Ap     1.412743  
      36Ap     1.457067    37Ap     1.524840    13App    1.572886  
      38Ap     1.777591    39Ap     1.991050    14App    2.009124  
      40Ap     2.057751    15App    2.129466    41Ap     2.295324  
      42Ap     2.365492    16App    2.377946    17App    2.389050  
      43Ap     2.461400    44Ap     2.592768    45Ap     2.666042  
      46Ap     2.732499    47Ap     2.981616    48Ap     2.996633  
      49Ap     3.484757    18App    3.675636    50Ap     3.712337  
      19App    3.724025    51Ap     3.978953    52Ap     4.008898  
      53Ap     4.093407    54Ap     4.338744    20App    4.911768  
      21App    4.931821    55Ap     5.048028    56Ap     5.327673  
      57Ap     5.394478    22App    5.598369    58Ap     6.462477  
      59Ap     6.804097    60Ap    33.531603  

    Final Occupation by Irrep:
             Ap   App 
    DOCC [     4,    1 ]

  @DF-RHF Final Energy:   -76.03575687082552

   => Energetics <=

    Nuclear Repulsion Energy =              8.8014203545751499
    One-Electron Energy =                -122.2747955530298754
    Two-Electron Energy =                  37.4376183276292096
    Total Energy =                        -76.0357568708255229

Computation Completed


Properties will be evaluated at   0.000000,   0.000000,   0.000000 [a0]

Properties computed using the SCF density matrix


 Multipole Moments:

 ------------------------------------------------------------------------------------
     Multipole            Electronic (a.u.)      Nuclear  (a.u.)        Total (a.u.)
 ------------------------------------------------------------------------------------

 L = 1.  Multiply by 2.5417464519 to convert [e a0] to [Debye]
 Dipole X            :          0.6854868           -1.3175347           -0.6320479
 Dipole Y            :        -26.4541573           25.9651103           -0.4890470
 Dipole Z            :          0.0000000            0.0000000            0.0000000
 Magnitude           :                                                    0.7991567

 ------------------------------------------------------------------------------------

*** tstop() called on Lenovo-Y540-Zoha at Tue Sep 27 18:39:50 2022
Module time:
	user time   =        nan seconds =        nan minutes
	system time =        nan seconds =        nan minutes
	total time  =          1 seconds =       0.02 minutes
Total time:
	user time   =        nan seconds =        nan minutes
	system time =        nan seconds =        nan minutes
	total time  =        809 seconds =      13.48 minutes

    Psi4 stopped on: Tuesday, 27 September 2022 06:39PM
    Psi4 wall time for execution: 0:00:01.01


    -----------------------------------------------------------------------
          Psi4: An Open-Source Ab Initio Electronic Structure Package
                               Psi4 1.6.1 release

                         Git: Rev {HEAD} 5b9f6e3 


    D. G. A. Smith, L. A. Burns, A. C. Simmonett, R. M. Parrish,
    M. C. Schieber, R. Galvelis, P. Kraus, H. Kruse, R. Di Remigio,
    A. Alenaizan, A. M. James, S. Lehtola, J. P. Misiewicz, M. Scheurer,
    R. A. Shaw, J. B. Schriber, Y. Xie, Z. L. Glick, D. A. Sirianni,
    J. S. O'Brien, J. M. Waldrop, A. Kumar, E. G. Hohenstein,
    B. P. Pritchard, B. R. Brooks, H. F. Schaefer III, A. Yu. Sokolov,
    K. Patkowski, A. E. DePrince III, U. Bozkaya, R. A. King,
    F. A. Evangelista, J. M. Turney, T. D. Crawford, C. D. Sherrill,
    J. Chem. Phys. 152(18) 184108 (2020). https://doi.org/10.1063/5.0006002

                            Additional Code Authors
    E. T. Seidl, C. L. Janssen, E. F. Valeev, M. L. Leininger,
    J. F. Gonthier, R. M. Richard, H. R. McAlexander, M. Saitow, X. Wang,
    P. Verma, M. H. Lechner, and A. Jiang

             Previous Authors, Complete List of Code Contributors,
                       and Citations for Specific Modules
    https://github.com/psi4/psi4/blob/master/codemeta.json
    https://github.com/psi4/psi4/graphs/contributors
    http://psicode.org/psi4manual/master/introduction.html#citing-psifour

    -----------------------------------------------------------------------


    Psi4 started on: Tuesday, 27 September 2022 06:25PM

    Process ID: 10544
    Host:       Lenovo-Y540-Zoha
    PSIDATADIR: C:\Users\64292\Anaconda3\envs\qm-tools\lib\share\psi4
    Memory:     476.8 MiB
    Threads:    1
    
  ==> Input QCSchema <==

--------------------------------------------------------------------------
{'driver': 'energy',
 'extras': {'psiapi': True, 'wfn_qcvars_only': True},
 'id': None,
 'keywords': {'function_kwargs': {}},
 'model': {'basis': 'aug-cc-pvdz', 'method': 'scf'},
 'molecule': {'atom_labels': ['1', '2', '3', '5', '6', '7'],
              'atomic_numbers': [8, 1, 1, 8, 1, 1],
              'fix_com': True,
              'fix_orientation': True,
              'fragment_charges': [0.0, 0.0],
              'fragment_multiplicities': [1, 1],
              'fragments': [[0, 1, 2], [3, 4, 5]],
              'geometry': [0.05118338925575477, 2.7381048180397762, 0.0, 0.05118338925575477, 0.8483786925819481, 0.0,
                           -1.7781852282291912, 3.211893051957708, 0.0, 0.05118338925575477, -2.5531283332421424, 0.0,
                           1.687734220097374, -3.497991395971056, 0.0, -1.585367441585863, -3.4979913959710567, 0.0],
              'mass_numbers': [16, 1, 1, 16, 1, 1],
              'masses': [15.99491461957, 1.00782503223, 1.00782503223, 15.99491461957, 1.00782503223, 1.00782503223],
              'molecular_charge': 0.0,
              'molecular_multiplicity': 1,
              'name': 'H4O2',
              'provenance': {'creator': 'QCElemental',
                             'routine': 'qcelemental.molparse.from_string',
                             'version': 'v0.25.0'},
              'real': [True, True, True, True, True, True],
              'schema_name': 'qcschema_molecule',
              'schema_version': 2,
              'symbols': ['O', 'H', 'H', 'O', 'H', 'H'],
              'validated': True},
 'protocols': {'stdout': True},
 'provenance': {'creator': 'QCElemental', 'routine': 'qcelemental.models.results', 'version': 'v0.25.0'},
 'schema_name': 'qcschema_input',
 'schema_version': 1}
--------------------------------------------------------------------------

Scratch directory: C:\Users\64292\AppData\Local\Temp/

*** tstart() called on Lenovo-Y540-Zoha
*** at Tue Sep 27 18:39:50 2022

   => Loading Basis Set <=

    Name: AUG-CC-PVDZ
    Role: ORBITAL
    Keyword: BASIS
    atoms 1, 4     entry O          line   254 file C:\Users\64292\Anaconda3\envs\qm-tools\lib\share\psi4\basis\aug-cc-pvdz.gbs 
    atoms 2-3, 5-6 entry H          line    40 file C:\Users\64292\Anaconda3\envs\qm-tools\lib\share\psi4\basis\aug-cc-pvdz.gbs 


         ---------------------------------------------------------
                                   SCF
               by Justin Turney, Rob Parrish, Andy Simmonett
                          and Daniel G. A. Smith
                              RHF Reference
                        1 Threads,    476 MiB Core
         ---------------------------------------------------------

  ==> Geometry <==

    Molecular point group: cs
    Full point group: Cs

    Geometry (in Bohr), charge = 0, multiplicity = 1:

       Center              X                  Y                   Z               Mass       
    ------------   -----------------  -----------------  -----------------  -----------------
         O            0.051183389256     2.738104818040     0.000000000000    15.994914619570
         H            0.051183389256     0.848378692582     0.000000000000     1.007825032230
         H           -1.778185228229     3.211893051958     0.000000000000     1.007825032230
         O            0.051183389256    -2.553128333242     0.000000000000    15.994914619570
         H            1.687734220097    -3.497991395971     0.000000000000     1.007825032230
         H           -1.585367441586    -3.497991395971     0.000000000000     1.007825032230

  Running in cs symmetry.

  Rotational constants: A =      7.05125  B =      0.23144  C =      0.22409 [cm^-1]
  Rotational constants: A = 211391.04720  B =   6938.51415  C =   6718.00815 [MHz]
  Nuclear repulsion =   36.537534029942407

  Charge       = 0
  Multiplicity = 1
  Electrons    = 20
  Nalpha       = 10
  Nbeta        = 10

  ==> Algorithm <==

  SCF Algorithm Type is DF.
  DIIS enabled.
  MOM disabled.
  Fractional occupation disabled.
  Guess Type is SAD.
  Energy threshold   = 1.00e-06
  Density threshold  = 1.00e-06
  Integral threshold = 1.00e-12

  ==> Primary Basis <==

  Basis Set: AUG-CC-PVDZ
    Blend: AUG-CC-PVDZ
    Number of shells: 38
    Number of basis functions: 82
    Number of Cartesian functions: 86
    Spherical Harmonics?: true
    Max angular momentum: 2

   => Loading Basis Set <=

    Name: (AUG-CC-PVDZ AUX)
    Role: JKFIT
    Keyword: DF_BASIS_SCF
    atoms 1, 4     entry O          line   270 file C:\Users\64292\Anaconda3\envs\qm-tools\lib\share\psi4\basis\aug-cc-pvdz-jkfit.gbs 
    atoms 2-3, 5-6 entry H          line    70 file C:\Users\64292\Anaconda3\envs\qm-tools\lib\share\psi4\basis\aug-cc-pvdz-jkfit.gbs 

  ==> Integral Setup <==

  DFHelper Memory: AOs need 0.017 GiB; user supplied 0.349 GiB. Using in-core AOs.

  ==> MemDFJK: Density-Fitted J/K Matrices <==

    J tasked:                   Yes
    K tasked:                   Yes
    wK tasked:                   No
    OpenMP threads:               1
    Memory [MiB]:               357
    Algorithm:                 Core
    Schwarz Cutoff:           1E-12
    Mask sparsity (%):       0.0000
    Fitting Condition:        1E-10

   => Auxiliary Basis Set <=

  Basis Set: (AUG-CC-PVDZ AUX)
    Blend: AUG-CC-PVDZ-JKFIT
    Number of shells: 104
    Number of basis functions: 300
    Number of Cartesian functions: 342
    Spherical Harmonics?: true
    Max angular momentum: 3

  Minimum eigenvalue in the overlap matrix is 1.6942796967E-03.
  Reciprocal condition number of the overlap matrix is 2.2257284191E-04.
    Using symmetric orthogonalization.

  ==> Pre-Iterations <==

  SCF Guess: Superposition of Atomic Densities via on-the-fly atomic UHF (no occupation information).

   -------------------------
    Irrep   Nso     Nmo    
   -------------------------
     A'        60      60 
     A"        22      22 
   -------------------------
    Total      82      82
   -------------------------

  ==> Iterations <==

                           Total Energy        Delta E     RMS |[F,P]|

   @DF-RHF iter SAD:  -150.92772949587618   -1.50928e+02   0.00000e+00 
   @DF-RHF iter   1:  -151.91279178593322   -9.85062e-01   9.58176e-03 DIIS/ADIIS
   @DF-RHF iter   2:  -152.01345035320952   -1.00659e-01   6.23556e-03 DIIS/ADIIS
   @DF-RHF iter   3:  -152.06927005035482   -5.58197e-02   5.56626e-04 DIIS/ADIIS
   @DF-RHF iter   4:  -152.07029874909236   -1.02870e-03   1.22745e-04 DIIS/ADIIS
   @DF-RHF iter   5:  -152.07035634988279   -5.76008e-05   4.83344e-05 DIIS
   @DF-RHF iter   6:  -152.07036351122551   -7.16134e-06   1.66017e-05 DIIS
   @DF-RHF iter   7:  -152.07036465255845   -1.14133e-06   3.14249e-06 DIIS
   @DF-RHF iter   8:  -152.07036471821922   -6.56608e-08   6.18159e-07 DIIS
  Energy and wave function converged.


  ==> Post-Iterations <==

    Orbital Energies [Eh]
    ---------------------

    Doubly Occupied:                                                      

       1Ap   -20.605773     2Ap   -20.540687     3Ap    -1.360818  
       4Ap    -1.296823     5Ap    -0.752849     6Ap    -0.674788  
       7Ap    -0.587565     1App   -0.534393     8Ap    -0.528773  
       2App   -0.466769  

    Virtual:                                                              

       9Ap     0.024153    10Ap     0.048452    11Ap     0.060679  
      12Ap     0.092308     3App    0.172739    13Ap     0.176253  
      14Ap     0.198654    15Ap     0.212444    16Ap     0.233503  
       4App    0.243412    17Ap     0.248375    18Ap     0.271480  
      19Ap     0.303919    20Ap     0.316453     5App    0.354230  
      21Ap     0.370233     6App    0.420737     7App    0.447970  
      22Ap     0.461763    23Ap     0.481864    24Ap     0.518373  
       8App    0.533148    25Ap     0.544386    26Ap     0.595679  
      27Ap     0.631333    28Ap     0.653282    29Ap     0.677755  
      30Ap     0.791031    31Ap     0.864037    32Ap     0.898470  
      33Ap     0.960622    34Ap     0.981457     9App    1.096534  
      10App    1.116648    11App    1.147332    35Ap     1.186685  
      36Ap     1.211093    12App    1.225117    37Ap     1.348546  
      38Ap     1.460776    13App    1.462634    39Ap     1.523312  
      40Ap     1.544311    14App    1.635133    41Ap     1.644312  
      42Ap     1.963176    15App    2.012978    16App    2.019754  
      43Ap     2.032258    44Ap     2.050441    17App    2.054037  
      18App    2.170952    45Ap     2.382940    46Ap     2.412044  
      47Ap     2.484124    48Ap     2.503097    49Ap     2.546656  
      50Ap     2.766550    51Ap     2.839132    52Ap     2.876757  
      53Ap     3.030134    54Ap     3.055788    19App    3.668489  
      20App    3.686414    21App    3.713972    55Ap     3.748705  
      22App    3.768625    56Ap     3.836296    57Ap     4.098525  
      58Ap     4.118651    59Ap     4.181090    60Ap     4.396955  

    Final Occupation by Irrep:
             Ap   App 
    DOCC [     8,    2 ]

  @DF-RHF Final Energy:  -152.07036471821922

   => Energetics <=

    Nuclear Repulsion Energy =             36.5375340299424067
    One-Electron Energy =                -282.5173093604140035
    Two-Electron Energy =                  93.9094106122523868
    Total Energy =                       -152.0703647182191958

Computation Completed


Properties will be evaluated at   0.000000,   0.000000,   0.000000 [a0]

Properties computed using the SCF density matrix


 Multipole Moments:

 ------------------------------------------------------------------------------------
     Multipole            Electronic (a.u.)      Nuclear  (a.u.)        Total (a.u.)
 ------------------------------------------------------------------------------------

 L = 1.  Multiply by 2.5417464519 to convert [e a0] to [Debye]
 Dipole X            :          0.2098809           -0.8057008           -0.5958200
 Dipole Y            :         -0.0295320           -1.4558992           -1.4854311
 Dipole Z            :          0.0000000            0.0000000            0.0000000
 Magnitude           :                                                    1.6004709

 ------------------------------------------------------------------------------------

*** tstop() called on Lenovo-Y540-Zoha at Tue Sep 27 18:39:51 2022
Module time:
	user time   =        nan seconds =        nan minutes
	system time =        nan seconds =        nan minutes
	total time  =          1 seconds =       0.02 minutes
Total time:
	user time   =        nan seconds =        nan minutes
	system time =        nan seconds =        nan minutes
	total time  =        810 seconds =      13.50 minutes

    Psi4 stopped on: Tuesday, 27 September 2022 06:39PM
    Psi4 wall time for execution: 0:00:01.03


  //>>>>>>>>>>>>>>>>>>>>>>>>>>>>>>>>>>>//
  //          ManyBody Results         //
  //<<<<<<<<<<<<<<<<<<<<<<<<<<<<<<<<<<<//


   ==> N-Body: Counterpoise Corrected (CP) energies <==

        n-Body     Total Energy            Interaction Energy                          N-body Contribution to Interaction Energy
                   [Eh]                    [Eh]                  [kcal/mol]            [Eh]                  [kcal/mol]
             1  N/A                         0.000000000000        0.000000000000        0.000000000000        0.000000000000
  FULL/RTN   2  N/A                        -0.004558729287       -2.860645816282       -0.004558729287       -2.860645816282

