
Scratch directory: C:\Users\64292\AppData\Local\Temp/

  //>>>>>>>>>>>>>>>>>>>>>>>>>>>>>>>>>>>>>//
  // ManyBody Setup: N-Body Levels [1, 2]//
  //<<<<<<<<<<<<<<<<<<<<<<<<<<<<<<<<<<<<<//

        Number of 1-body computations:     2
        Number of 2-body computations:     1

    -----------------------------------------------------------------------
          Psi4: An Open-Source Ab Initio Electronic Structure Package
                               Psi4 1.6.1 release

                         Git: Rev {HEAD} 5b9f6e3 


    D. G. A. Smith, L. A. Burns, A. C. Simmonett, R. M. Parrish,
    M. C. Schieber, R. Galvelis, P. Kraus, H. Kruse, R. Di Remigio,
    A. Alenaizan, A. M. James, S. Lehtola, J. P. Misiewicz, M. Scheurer,
    R. A. Shaw, J. B. Schriber, Y. Xie, Z. L. Glick, D. A. Sirianni,
    J. S. O'Brien, J. M. Waldrop, A. Kumar, E. G. Hohenstein,
    B. P. Pritchard, B. R. Brooks, H. F. Schaefer III, A. Yu. Sokolov,
    K. Patkowski, A. E. DePrince III, U. Bozkaya, R. A. King,
    F. A. Evangelista, J. M. Turney, T. D. Crawford, C. D. Sherrill,
    J. Chem. Phys. 152(18) 184108 (2020). https://doi.org/10.1063/5.0006002

                            Additional Code Authors
    E. T. Seidl, C. L. Janssen, E. F. Valeev, M. L. Leininger,
    J. F. Gonthier, R. M. Richard, H. R. McAlexander, M. Saitow, X. Wang,
    P. Verma, M. H. Lechner, and A. Jiang

             Previous Authors, Complete List of Code Contributors,
                       and Citations for Specific Modules
    https://github.com/psi4/psi4/blob/master/codemeta.json
    https://github.com/psi4/psi4/graphs/contributors
    http://psicode.org/psi4manual/master/introduction.html#citing-psifour

    -----------------------------------------------------------------------


    Psi4 started on: Tuesday, 27 September 2022 06:25PM

    Process ID: 10544
    Host:       Lenovo-Y540-Zoha
    PSIDATADIR: C:\Users\64292\Anaconda3\envs\qm-tools\lib\share\psi4
    Memory:     476.8 MiB
    Threads:    1
    
  ==> Input QCSchema <==

--------------------------------------------------------------------------
{'driver': 'energy',
 'extras': {'psiapi': True, 'wfn_qcvars_only': True},
 'id': None,
 'keywords': {'function_kwargs': {}},
 'model': {'basis': 'aug-cc-pvdz', 'method': 'scf'},
 'molecule': {'atom_labels': ['1', '2', '3', '5', '6', '7'],
              'atomic_numbers': [8, 1, 1, 8, 1, 1],
              'fix_com': True,
              'fix_orientation': True,
              'fragment_charges': [0.0, 0.0],
              'fragment_multiplicities': [1, 1],
              'fragments': [[0, 1, 2], [3, 4, 5]],
              'geometry': [0.0511833892557548, 2.832591124312668, 0.0, 0.0511833892557548, 0.9428649988548401, 0.0,
                           -1.7781852282291912, 3.3063793582305996, 0.0, 0.0511833892557548, -2.6476146395150333, 0.0,
                           0.0511833892557548, -3.592477702243947, -1.6365508308416183, 0.0511833892557548,
                           -3.592477702243947, 1.6365508308416183],
              'mass_numbers': [16, 1, 1, 16, 1, 1],
              'masses': [15.99491461957, 1.00782503223, 1.00782503223, 15.99491461957, 1.00782503223, 1.00782503223],
              'molecular_charge': 0.0,
              'molecular_multiplicity': 1,
              'name': 'H4O2',
              'provenance': {'creator': 'QCElemental',
                             'routine': 'qcelemental.molparse.from_string',
                             'version': 'v0.25.0'},
              'real': [False, False, False, True, True, True],
              'schema_name': 'qcschema_molecule',
              'schema_version': 2,
              'symbols': ['O', 'H', 'H', 'O', 'H', 'H'],
              'validated': True},
 'protocols': {'stdout': True},
 'provenance': {'creator': 'QCElemental', 'routine': 'qcelemental.models.results', 'version': 'v0.25.0'},
 'schema_name': 'qcschema_input',
 'schema_version': 1}
--------------------------------------------------------------------------

Scratch directory: C:\Users\64292\AppData\Local\Temp/

*** tstart() called on Lenovo-Y540-Zoha
*** at Tue Sep 27 18:40:55 2022

   => Loading Basis Set <=

    Name: AUG-CC-PVDZ
    Role: ORBITAL
    Keyword: BASIS
    atoms 1, 4     entry O          line   254 file C:\Users\64292\Anaconda3\envs\qm-tools\lib\share\psi4\basis\aug-cc-pvdz.gbs 
    atoms 2-3, 5-6 entry H          line    40 file C:\Users\64292\Anaconda3\envs\qm-tools\lib\share\psi4\basis\aug-cc-pvdz.gbs 


         ---------------------------------------------------------
                                   SCF
               by Justin Turney, Rob Parrish, Andy Simmonett
                          and Daniel G. A. Smith
                              RHF Reference
                        1 Threads,    476 MiB Core
         ---------------------------------------------------------

  ==> Geometry <==

    Molecular point group: cs
    Full point group: Cs

    Geometry (in Bohr), charge = 0, multiplicity = 1:

       Center              X                  Y                   Z               Mass       
    ------------   -----------------  -----------------  -----------------  -----------------
      Gh(O)           0.051183389256     2.832591124313     0.000000000000    15.994914619570
      Gh(H)           0.051183389256     0.942864998855     0.000000000000     1.007825032230
      Gh(H)          -1.778185228229     3.306379358231     0.000000000000     1.007825032230
         O            0.051183389256    -2.647614639515     0.000000000000    15.994914619570
         H            0.051183389256    -3.592477702244    -1.636550830842     1.007825032230
         H            0.051183389256    -3.592477702244     1.636550830842     1.007825032230

  Running in cs symmetry.

  Rotational constants: A =      7.04756  B =      0.21373  C =      0.21203 [cm^-1]
  Rotational constants: A = 211280.64283  B =   6407.41810  C =   6356.52536 [MHz]
  Nuclear repulsion =    8.772355975749342

  Charge       = 0
  Multiplicity = 1
  Electrons    = 10
  Nalpha       = 5
  Nbeta        = 5

  ==> Algorithm <==

  SCF Algorithm Type is DF.
  DIIS enabled.
  MOM disabled.
  Fractional occupation disabled.
  Guess Type is SAD.
  Energy threshold   = 1.00e-06
  Density threshold  = 1.00e-06
  Integral threshold = 1.00e-12

  ==> Primary Basis <==

  Basis Set: AUG-CC-PVDZ
    Blend: AUG-CC-PVDZ
    Number of shells: 38
    Number of basis functions: 82
    Number of Cartesian functions: 86
    Spherical Harmonics?: true
    Max angular momentum: 2

   => Loading Basis Set <=

    Name: (AUG-CC-PVDZ AUX)
    Role: JKFIT
    Keyword: DF_BASIS_SCF
    atoms 1, 4     entry O          line   270 file C:\Users\64292\Anaconda3\envs\qm-tools\lib\share\psi4\basis\aug-cc-pvdz-jkfit.gbs 
    atoms 2-3, 5-6 entry H          line    70 file C:\Users\64292\Anaconda3\envs\qm-tools\lib\share\psi4\basis\aug-cc-pvdz-jkfit.gbs 

  ==> Integral Setup <==

  DFHelper Memory: AOs need 0.017 GiB; user supplied 0.349 GiB. Using in-core AOs.

  ==> MemDFJK: Density-Fitted J/K Matrices <==

    J tasked:                   Yes
    K tasked:                   Yes
    wK tasked:                   No
    OpenMP threads:               1
    Memory [MiB]:               357
    Algorithm:                 Core
    Schwarz Cutoff:           1E-12
    Mask sparsity (%):       0.0000
    Fitting Condition:        1E-10

   => Auxiliary Basis Set <=

  Basis Set: (AUG-CC-PVDZ AUX)
    Blend: AUG-CC-PVDZ-JKFIT
    Number of shells: 104
    Number of basis functions: 300
    Number of Cartesian functions: 342
    Spherical Harmonics?: true
    Max angular momentum: 3

  Minimum eigenvalue in the overlap matrix is 2.0165479353E-03.
  Reciprocal condition number of the overlap matrix is 2.9774259926E-04.
    Using symmetric orthogonalization.

  ==> Pre-Iterations <==

  SCF Guess: Superposition of Atomic Densities via on-the-fly atomic UHF (no occupation information).

   -------------------------
    Irrep   Nso     Nmo    
   -------------------------
     A'        55      55 
     A"        27      27 
   -------------------------
    Total      82      82
   -------------------------

  ==> Iterations <==

                           Total Energy        Delta E     RMS |[F,P]|

   @DF-RHF iter SAD:   -75.40236273725003   -7.54024e+01   0.00000e+00 
   @DF-RHF iter   1:   -75.94519996236865   -5.42837e-01   7.37486e-03 DIIS/ADIIS
   @DF-RHF iter   2:   -75.99640165543001   -5.12017e-02   4.99610e-03 DIIS/ADIIS
   @DF-RHF iter   3:   -76.02948409645728   -3.30824e-02   3.82598e-04 DIIS/ADIIS
   @DF-RHF iter   4:   -76.02996448733123   -4.80391e-04   8.92596e-05 DIIS
   @DF-RHF iter   5:   -76.02999710284351   -3.26155e-05   2.18358e-05 DIIS
   @DF-RHF iter   6:   -76.03000018773315   -3.08489e-06   4.68550e-06 DIIS
   @DF-RHF iter   7:   -76.03000034316121   -1.55428e-07   8.61347e-07 DIIS
  Energy and wave function converged.


  ==> Post-Iterations <==

    Orbital Energies [Eh]
    ---------------------

    Doubly Occupied:                                                      

       1Ap   -20.575843     2Ap    -1.325803     1App   -0.721130  
       3Ap    -0.548199     4Ap    -0.500603  

    Virtual:                                                              

       5Ap     0.032471     6Ap     0.055338     2App    0.055568  
       7Ap     0.079786     8Ap     0.170498     3App    0.171495  
       9Ap     0.181711    10Ap     0.198089    11Ap     0.211357  
       4App    0.224808    12Ap     0.240817    13Ap     0.254674  
       5App    0.320763    14Ap     0.323214     6App    0.372278  
      15Ap     0.399723    16Ap     0.435753     7App    0.455165  
      17Ap     0.469314    18Ap     0.512808     8App    0.528902  
      19Ap     0.537638     9App    0.553005    20Ap     0.568822  
      21Ap     0.621023    10App    0.655221    22Ap     0.664457  
      23Ap     0.714642    11App    0.858869    24Ap     0.884484  
      25Ap     0.954842    12App    0.963314    26Ap     1.139129  
      13App    1.146348    27Ap     1.190986    28Ap     1.215425  
      29Ap     1.221641    30Ap     1.287644    14App    1.338579  
      31Ap     1.409145    15App    1.419784    32Ap     1.433443  
      33Ap     1.506395    16App    1.576911    34Ap     1.587963  
      35Ap     1.783308    17App    1.991521    36Ap     2.052504  
      18App    2.054228    37Ap     2.167091    38Ap     2.356870  
      19App    2.366622    20App    2.409181    39Ap     2.477436  
      21App    2.500753    40Ap     2.547908    41Ap     2.669731  
      42Ap     2.800052    22App    2.858523    43Ap     2.943489  
      44Ap     3.438830    23App    3.700993    45Ap     3.738088  
      46Ap     3.860965    47Ap     3.911266    48Ap     4.095024  
      49Ap     4.148440    24App    4.195702    25App    4.915526  
      50Ap     4.962272    26App    5.006823    51Ap     5.182861  
      52Ap     5.492217    27App    5.708664    53Ap     6.484048  
      54Ap     6.926671    55Ap    33.575158  

    Final Occupation by Irrep:
             Ap   App 
    DOCC [     4,    1 ]

  @DF-RHF Final Energy:   -76.03000034316121

   => Energetics <=

    Nuclear Repulsion Energy =              8.7723559757493419
    One-Electron Energy =                -122.2615204376917575
    Two-Electron Energy =                  37.4591641187812030
    Total Energy =                        -76.0300003431612055

Computation Completed


Properties will be evaluated at   0.000000,   0.000000,   0.000000 [a0]

Properties computed using the SCF density matrix


 Multipole Moments:

 ------------------------------------------------------------------------------------
     Multipole            Electronic (a.u.)      Nuclear  (a.u.)        Total (a.u.)
 ------------------------------------------------------------------------------------

 L = 1.  Multiply by 2.5417464519 to convert [e a0] to [Debye]
 Dipole X            :         -0.5115262            0.5118339            0.0003077
 Dipole Y            :         27.6814583          -28.3658725           -0.6844142
 Dipole Z            :          0.0000000            0.0000000            0.0000000
 Magnitude           :                                                    0.6844143

 ------------------------------------------------------------------------------------

*** tstop() called on Lenovo-Y540-Zoha at Tue Sep 27 18:40:56 2022
Module time:
	user time   =        nan seconds =        nan minutes
	system time =        nan seconds =        nan minutes
	total time  =          1 seconds =       0.02 minutes
Total time:
	user time   =        nan seconds =        nan minutes
	system time =        nan seconds =        nan minutes
	total time  =        875 seconds =      14.58 minutes

    Psi4 stopped on: Tuesday, 27 September 2022 06:40PM
    Psi4 wall time for execution: 0:00:01.06


    -----------------------------------------------------------------------
          Psi4: An Open-Source Ab Initio Electronic Structure Package
                               Psi4 1.6.1 release

                         Git: Rev {HEAD} 5b9f6e3 


    D. G. A. Smith, L. A. Burns, A. C. Simmonett, R. M. Parrish,
    M. C. Schieber, R. Galvelis, P. Kraus, H. Kruse, R. Di Remigio,
    A. Alenaizan, A. M. James, S. Lehtola, J. P. Misiewicz, M. Scheurer,
    R. A. Shaw, J. B. Schriber, Y. Xie, Z. L. Glick, D. A. Sirianni,
    J. S. O'Brien, J. M. Waldrop, A. Kumar, E. G. Hohenstein,
    B. P. Pritchard, B. R. Brooks, H. F. Schaefer III, A. Yu. Sokolov,
    K. Patkowski, A. E. DePrince III, U. Bozkaya, R. A. King,
    F. A. Evangelista, J. M. Turney, T. D. Crawford, C. D. Sherrill,
    J. Chem. Phys. 152(18) 184108 (2020). https://doi.org/10.1063/5.0006002

                            Additional Code Authors
    E. T. Seidl, C. L. Janssen, E. F. Valeev, M. L. Leininger,
    J. F. Gonthier, R. M. Richard, H. R. McAlexander, M. Saitow, X. Wang,
    P. Verma, M. H. Lechner, and A. Jiang

             Previous Authors, Complete List of Code Contributors,
                       and Citations for Specific Modules
    https://github.com/psi4/psi4/blob/master/codemeta.json
    https://github.com/psi4/psi4/graphs/contributors
    http://psicode.org/psi4manual/master/introduction.html#citing-psifour

    -----------------------------------------------------------------------


    Psi4 started on: Tuesday, 27 September 2022 06:25PM

    Process ID: 10544
    Host:       Lenovo-Y540-Zoha
    PSIDATADIR: C:\Users\64292\Anaconda3\envs\qm-tools\lib\share\psi4
    Memory:     476.8 MiB
    Threads:    1
    
  ==> Input QCSchema <==

--------------------------------------------------------------------------
{'driver': 'energy',
 'extras': {'psiapi': True, 'wfn_qcvars_only': True},
 'id': None,
 'keywords': {'function_kwargs': {}},
 'model': {'basis': 'aug-cc-pvdz', 'method': 'scf'},
 'molecule': {'atom_labels': ['1', '2', '3', '5', '6', '7'],
              'atomic_numbers': [8, 1, 1, 8, 1, 1],
              'fix_com': True,
              'fix_orientation': True,
              'fragment_charges': [0.0, 0.0],
              'fragment_multiplicities': [1, 1],
              'fragments': [[0, 1, 2], [3, 4, 5]],
              'geometry': [0.0511833892557548, 2.832591124312668, 0.0, 0.0511833892557548, 0.9428649988548401, 0.0,
                           -1.7781852282291912, 3.3063793582305996, 0.0, 0.0511833892557548, -2.6476146395150333, 0.0,
                           0.0511833892557548, -3.592477702243947, -1.6365508308416183, 0.0511833892557548,
                           -3.592477702243947, 1.6365508308416183],
              'mass_numbers': [16, 1, 1, 16, 1, 1],
              'masses': [15.99491461957, 1.00782503223, 1.00782503223, 15.99491461957, 1.00782503223, 1.00782503223],
              'molecular_charge': 0.0,
              'molecular_multiplicity': 1,
              'name': 'H4O2',
              'provenance': {'creator': 'QCElemental',
                             'routine': 'qcelemental.molparse.from_string',
                             'version': 'v0.25.0'},
              'real': [True, True, True, False, False, False],
              'schema_name': 'qcschema_molecule',
              'schema_version': 2,
              'symbols': ['O', 'H', 'H', 'O', 'H', 'H'],
              'validated': True},
 'protocols': {'stdout': True},
 'provenance': {'creator': 'QCElemental', 'routine': 'qcelemental.models.results', 'version': 'v0.25.0'},
 'schema_name': 'qcschema_input',
 'schema_version': 1}
--------------------------------------------------------------------------

Scratch directory: C:\Users\64292\AppData\Local\Temp/

*** tstart() called on Lenovo-Y540-Zoha
*** at Tue Sep 27 18:40:56 2022

   => Loading Basis Set <=

    Name: AUG-CC-PVDZ
    Role: ORBITAL
    Keyword: BASIS
    atoms 1, 4     entry O          line   254 file C:\Users\64292\Anaconda3\envs\qm-tools\lib\share\psi4\basis\aug-cc-pvdz.gbs 
    atoms 2-3, 5-6 entry H          line    40 file C:\Users\64292\Anaconda3\envs\qm-tools\lib\share\psi4\basis\aug-cc-pvdz.gbs 


         ---------------------------------------------------------
                                   SCF
               by Justin Turney, Rob Parrish, Andy Simmonett
                          and Daniel G. A. Smith
                              RHF Reference
                        1 Threads,    476 MiB Core
         ---------------------------------------------------------

  ==> Geometry <==

    Molecular point group: cs
    Full point group: Cs

    Geometry (in Bohr), charge = 0, multiplicity = 1:

       Center              X                  Y                   Z               Mass       
    ------------   -----------------  -----------------  -----------------  -----------------
         O            0.051183389256     2.832591124313     0.000000000000    15.994914619570
         H            0.051183389256     0.942864998855     0.000000000000     1.007825032230
         H           -1.778185228229     3.306379358231     0.000000000000     1.007825032230
      Gh(O)           0.051183389256    -2.647614639515     0.000000000000    15.994914619570
      Gh(H)           0.051183389256    -3.592477702244    -1.636550830842     1.007825032230
      Gh(H)           0.051183389256    -3.592477702244     1.636550830842     1.007825032230

  Running in cs symmetry.

  Rotational constants: A =      7.04756  B =      0.21373  C =      0.21203 [cm^-1]
  Rotational constants: A = 211280.64283  B =   6407.41810  C =   6356.52536 [MHz]
  Nuclear repulsion =    8.801420354575152

  Charge       = 0
  Multiplicity = 1
  Electrons    = 10
  Nalpha       = 5
  Nbeta        = 5

  ==> Algorithm <==

  SCF Algorithm Type is DF.
  DIIS enabled.
  MOM disabled.
  Fractional occupation disabled.
  Guess Type is SAD.
  Energy threshold   = 1.00e-06
  Density threshold  = 1.00e-06
  Integral threshold = 1.00e-12

  ==> Primary Basis <==

  Basis Set: AUG-CC-PVDZ
    Blend: AUG-CC-PVDZ
    Number of shells: 38
    Number of basis functions: 82
    Number of Cartesian functions: 86
    Spherical Harmonics?: true
    Max angular momentum: 2

   => Loading Basis Set <=

    Name: (AUG-CC-PVDZ AUX)
    Role: JKFIT
    Keyword: DF_BASIS_SCF
    atoms 1, 4     entry O          line   270 file C:\Users\64292\Anaconda3\envs\qm-tools\lib\share\psi4\basis\aug-cc-pvdz-jkfit.gbs 
    atoms 2-3, 5-6 entry H          line    70 file C:\Users\64292\Anaconda3\envs\qm-tools\lib\share\psi4\basis\aug-cc-pvdz-jkfit.gbs 

  ==> Integral Setup <==

  DFHelper Memory: AOs need 0.017 GiB; user supplied 0.349 GiB. Using in-core AOs.

  ==> MemDFJK: Density-Fitted J/K Matrices <==

    J tasked:                   Yes
    K tasked:                   Yes
    wK tasked:                   No
    OpenMP threads:               1
    Memory [MiB]:               357
    Algorithm:                 Core
    Schwarz Cutoff:           1E-12
    Mask sparsity (%):       0.0000
    Fitting Condition:        1E-10

   => Auxiliary Basis Set <=

  Basis Set: (AUG-CC-PVDZ AUX)
    Blend: AUG-CC-PVDZ-JKFIT
    Number of shells: 104
    Number of basis functions: 300
    Number of Cartesian functions: 342
    Spherical Harmonics?: true
    Max angular momentum: 3

  Minimum eigenvalue in the overlap matrix is 2.0165479353E-03.
  Reciprocal condition number of the overlap matrix is 2.9774259926E-04.
    Using symmetric orthogonalization.

  ==> Pre-Iterations <==

  SCF Guess: Superposition of Atomic Densities via on-the-fly atomic UHF (no occupation information).

   -------------------------
    Irrep   Nso     Nmo    
   -------------------------
     A'        55      55 
     A"        27      27 
   -------------------------
    Total      82      82
   -------------------------

  ==> Iterations <==

                           Total Energy        Delta E     RMS |[F,P]|

   @DF-RHF iter SAD:   -75.41487086399043   -7.54149e+01   0.00000e+00 
   @DF-RHF iter   1:   -75.94942939555024   -5.34559e-01   7.36985e-03 DIIS/ADIIS
   @DF-RHF iter   2:   -76.00131145854422   -5.18821e-02   5.05471e-03 DIIS/ADIIS
   @DF-RHF iter   3:   -76.03526309369310   -3.39516e-02   3.84861e-04 DIIS/ADIIS
   @DF-RHF iter   4:   -76.03572585539879   -4.62762e-04   8.82619e-05 DIIS
   @DF-RHF iter   5:   -76.03575601311094   -3.01577e-05   2.09620e-05 DIIS
   @DF-RHF iter   6:   -76.03575859774350   -2.58463e-06   4.14461e-06 DIIS
   @DF-RHF iter   7:   -76.03575870146793   -1.03724e-07   6.75840e-07 DIIS
  Energy and wave function converged.


  ==> Post-Iterations <==

    Orbital Energies [Eh]
    ---------------------

    Doubly Occupied:                                                      

       1Ap   -20.584233     2Ap    -1.335632     3Ap    -0.696481  
       4Ap    -0.577350     1App   -0.506063  

    Virtual:                                                              

       5Ap     0.024922     6Ap     0.050771     2App    0.057905  
       7Ap     0.078978     8Ap     0.134335     9Ap     0.150963  
       3App    0.187865    10Ap     0.191102     4App    0.220552  
      11Ap     0.226771    12Ap     0.229376    13Ap     0.271101  
      14Ap     0.329662    15Ap     0.359500     5App    0.378419  
      16Ap     0.385407     6App    0.397128    17Ap     0.412775  
       7App    0.425200    18Ap     0.475692    19Ap     0.483289  
       8App    0.493756    20Ap     0.544334     9App    0.552715  
      21Ap     0.573580    10App    0.615719    22Ap     0.651078  
      23Ap     0.739992    24Ap     0.862822    25Ap     0.916468  
      26Ap     0.979359    27Ap     1.055236    11App    1.110033  
      28Ap     1.160138    29Ap     1.176402    12App    1.183021  
      13App    1.198702    30Ap     1.280187    14App    1.296974  
      31Ap     1.306120    15App    1.329160    32Ap     1.401535  
      33Ap     1.455211    34Ap     1.500770    16App    1.589930  
      35Ap     1.746452    36Ap     1.983966    17App    1.995972  
      37Ap     2.068474    18App    2.077347    19App    2.351720  
      20App    2.378585    38Ap     2.385086    39Ap     2.419346  
      40Ap     2.453203    21App    2.467916    41Ap     2.622910  
      42Ap     2.716497    43Ap     2.958523    44Ap     2.990381  
      45Ap     3.453632    22App    3.676720    46Ap     3.704763  
      23App    3.738692    47Ap     3.965297    24App    3.980845  
      48Ap     4.053453    49Ap     4.309840    50Ap     4.926071  
      25App    4.934453    51Ap     5.061093    26App    5.324133  
      52Ap     5.377295    53Ap     5.605470    54Ap     6.413488  
      27App    6.805769    55Ap    33.530024  

    Final Occupation by Irrep:
             Ap   App 
    DOCC [     4,    1 ]

  @DF-RHF Final Energy:   -76.03575870146793

   => Energetics <=

    Nuclear Repulsion Energy =              8.8014203545751517
    One-Electron Energy =                -122.2748176532038400
    Two-Electron Energy =                  37.4376385971607561
    Total Energy =                        -76.0357587014679268

Computation Completed


Properties will be evaluated at   0.000000,   0.000000,   0.000000 [a0]

Properties computed using the SCF density matrix


 Multipole Moments:

 ------------------------------------------------------------------------------------
     Multipole            Electronic (a.u.)      Nuclear  (a.u.)        Total (a.u.)
 ------------------------------------------------------------------------------------

 L = 1.  Multiply by 2.5417464519 to convert [e a0] to [Debye]
 Dipole X            :          0.6856073           -1.3175347           -0.6319274
 Dipole Y            :        -27.3987743           26.9099734           -0.4888010
 Dipole Z            :          0.0000000            0.0000000            0.0000000
 Magnitude           :                                                    0.7989109

 ------------------------------------------------------------------------------------

*** tstop() called on Lenovo-Y540-Zoha at Tue Sep 27 18:40:57 2022
Module time:
	user time   =        nan seconds =        nan minutes
	system time =        nan seconds =        nan minutes
	total time  =          1 seconds =       0.02 minutes
Total time:
	user time   =        nan seconds =        nan minutes
	system time =        nan seconds =        nan minutes
	total time  =        876 seconds =      14.60 minutes

    Psi4 stopped on: Tuesday, 27 September 2022 06:40PM
    Psi4 wall time for execution: 0:00:01.07


    -----------------------------------------------------------------------
          Psi4: An Open-Source Ab Initio Electronic Structure Package
                               Psi4 1.6.1 release

                         Git: Rev {HEAD} 5b9f6e3 


    D. G. A. Smith, L. A. Burns, A. C. Simmonett, R. M. Parrish,
    M. C. Schieber, R. Galvelis, P. Kraus, H. Kruse, R. Di Remigio,
    A. Alenaizan, A. M. James, S. Lehtola, J. P. Misiewicz, M. Scheurer,
    R. A. Shaw, J. B. Schriber, Y. Xie, Z. L. Glick, D. A. Sirianni,
    J. S. O'Brien, J. M. Waldrop, A. Kumar, E. G. Hohenstein,
    B. P. Pritchard, B. R. Brooks, H. F. Schaefer III, A. Yu. Sokolov,
    K. Patkowski, A. E. DePrince III, U. Bozkaya, R. A. King,
    F. A. Evangelista, J. M. Turney, T. D. Crawford, C. D. Sherrill,
    J. Chem. Phys. 152(18) 184108 (2020). https://doi.org/10.1063/5.0006002

                            Additional Code Authors
    E. T. Seidl, C. L. Janssen, E. F. Valeev, M. L. Leininger,
    J. F. Gonthier, R. M. Richard, H. R. McAlexander, M. Saitow, X. Wang,
    P. Verma, M. H. Lechner, and A. Jiang

             Previous Authors, Complete List of Code Contributors,
                       and Citations for Specific Modules
    https://github.com/psi4/psi4/blob/master/codemeta.json
    https://github.com/psi4/psi4/graphs/contributors
    http://psicode.org/psi4manual/master/introduction.html#citing-psifour

    -----------------------------------------------------------------------


    Psi4 started on: Tuesday, 27 September 2022 06:25PM

    Process ID: 10544
    Host:       Lenovo-Y540-Zoha
    PSIDATADIR: C:\Users\64292\Anaconda3\envs\qm-tools\lib\share\psi4
    Memory:     476.8 MiB
    Threads:    1
    
  ==> Input QCSchema <==

--------------------------------------------------------------------------
{'driver': 'energy',
 'extras': {'psiapi': True, 'wfn_qcvars_only': True},
 'id': None,
 'keywords': {'function_kwargs': {}},
 'model': {'basis': 'aug-cc-pvdz', 'method': 'scf'},
 'molecule': {'atom_labels': ['1', '2', '3', '5', '6', '7'],
              'atomic_numbers': [8, 1, 1, 8, 1, 1],
              'fix_com': True,
              'fix_orientation': True,
              'fragment_charges': [0.0, 0.0],
              'fragment_multiplicities': [1, 1],
              'fragments': [[0, 1, 2], [3, 4, 5]],
              'geometry': [0.0511833892557548, 2.832591124312668, 0.0, 0.0511833892557548, 0.9428649988548401, 0.0,
                           -1.7781852282291912, 3.3063793582305996, 0.0, 0.0511833892557548, -2.6476146395150333, 0.0,
                           0.0511833892557548, -3.592477702243947, -1.6365508308416183, 0.0511833892557548,
                           -3.592477702243947, 1.6365508308416183],
              'mass_numbers': [16, 1, 1, 16, 1, 1],
              'masses': [15.99491461957, 1.00782503223, 1.00782503223, 15.99491461957, 1.00782503223, 1.00782503223],
              'molecular_charge': 0.0,
              'molecular_multiplicity': 1,
              'name': 'H4O2',
              'provenance': {'creator': 'QCElemental',
                             'routine': 'qcelemental.molparse.from_string',
                             'version': 'v0.25.0'},
              'real': [True, True, True, True, True, True],
              'schema_name': 'qcschema_molecule',
              'schema_version': 2,
              'symbols': ['O', 'H', 'H', 'O', 'H', 'H'],
              'validated': True},
 'protocols': {'stdout': True},
 'provenance': {'creator': 'QCElemental', 'routine': 'qcelemental.models.results', 'version': 'v0.25.0'},
 'schema_name': 'qcschema_input',
 'schema_version': 1}
--------------------------------------------------------------------------

Scratch directory: C:\Users\64292\AppData\Local\Temp/

*** tstart() called on Lenovo-Y540-Zoha
*** at Tue Sep 27 18:40:57 2022

   => Loading Basis Set <=

    Name: AUG-CC-PVDZ
    Role: ORBITAL
    Keyword: BASIS
    atoms 1, 4     entry O          line   254 file C:\Users\64292\Anaconda3\envs\qm-tools\lib\share\psi4\basis\aug-cc-pvdz.gbs 
    atoms 2-3, 5-6 entry H          line    40 file C:\Users\64292\Anaconda3\envs\qm-tools\lib\share\psi4\basis\aug-cc-pvdz.gbs 


         ---------------------------------------------------------
                                   SCF
               by Justin Turney, Rob Parrish, Andy Simmonett
                          and Daniel G. A. Smith
                              RHF Reference
                        1 Threads,    476 MiB Core
         ---------------------------------------------------------

  ==> Geometry <==

    Molecular point group: cs
    Full point group: Cs

    Geometry (in Bohr), charge = 0, multiplicity = 1:

       Center              X                  Y                   Z               Mass       
    ------------   -----------------  -----------------  -----------------  -----------------
         O            0.051183389256     2.832591124313     0.000000000000    15.994914619570
         H            0.051183389256     0.942864998855     0.000000000000     1.007825032230
         H           -1.778185228229     3.306379358231     0.000000000000     1.007825032230
         O            0.051183389256    -2.647614639515     0.000000000000    15.994914619570
         H            0.051183389256    -3.592477702244    -1.636550830842     1.007825032230
         H            0.051183389256    -3.592477702244     1.636550830842     1.007825032230

  Running in cs symmetry.

  Rotational constants: A =      7.04756  B =      0.21373  C =      0.21203 [cm^-1]
  Rotational constants: A = 211280.64283  B =   6407.41810  C =   6356.52536 [MHz]
  Nuclear repulsion =   35.865788285748124

  Charge       = 0
  Multiplicity = 1
  Electrons    = 20
  Nalpha       = 10
  Nbeta        = 10

  ==> Algorithm <==

  SCF Algorithm Type is DF.
  DIIS enabled.
  MOM disabled.
  Fractional occupation disabled.
  Guess Type is SAD.
  Energy threshold   = 1.00e-06
  Density threshold  = 1.00e-06
  Integral threshold = 1.00e-12

  ==> Primary Basis <==

  Basis Set: AUG-CC-PVDZ
    Blend: AUG-CC-PVDZ
    Number of shells: 38
    Number of basis functions: 82
    Number of Cartesian functions: 86
    Spherical Harmonics?: true
    Max angular momentum: 2

   => Loading Basis Set <=

    Name: (AUG-CC-PVDZ AUX)
    Role: JKFIT
    Keyword: DF_BASIS_SCF
    atoms 1, 4     entry O          line   270 file C:\Users\64292\Anaconda3\envs\qm-tools\lib\share\psi4\basis\aug-cc-pvdz-jkfit.gbs 
    atoms 2-3, 5-6 entry H          line    70 file C:\Users\64292\Anaconda3\envs\qm-tools\lib\share\psi4\basis\aug-cc-pvdz-jkfit.gbs 

  ==> Integral Setup <==

  DFHelper Memory: AOs need 0.017 GiB; user supplied 0.349 GiB. Using in-core AOs.

  ==> MemDFJK: Density-Fitted J/K Matrices <==

    J tasked:                   Yes
    K tasked:                   Yes
    wK tasked:                   No
    OpenMP threads:               1
    Memory [MiB]:               357
    Algorithm:                 Core
    Schwarz Cutoff:           1E-12
    Mask sparsity (%):       0.0000
    Fitting Condition:        1E-10

   => Auxiliary Basis Set <=

  Basis Set: (AUG-CC-PVDZ AUX)
    Blend: AUG-CC-PVDZ-JKFIT
    Number of shells: 104
    Number of basis functions: 300
    Number of Cartesian functions: 342
    Spherical Harmonics?: true
    Max angular momentum: 3

  Minimum eigenvalue in the overlap matrix is 2.0165479353E-03.
  Reciprocal condition number of the overlap matrix is 2.9774259926E-04.
    Using symmetric orthogonalization.

  ==> Pre-Iterations <==

  SCF Guess: Superposition of Atomic Densities via on-the-fly atomic UHF (no occupation information).

   -------------------------
    Irrep   Nso     Nmo    
   -------------------------
     A'        55      55 
     A"        27      27 
   -------------------------
    Total      82      82
   -------------------------

  ==> Iterations <==

                           Total Energy        Delta E     RMS |[F,P]|

   @DF-RHF iter SAD:  -150.90503713170995   -1.50905e+02   0.00000e+00 
   @DF-RHF iter   1:  -151.91390275855247   -1.00887e+00   1.00212e-02 DIIS/ADIIS
   @DF-RHF iter   2:  -152.01409738715085   -1.00195e-01   6.55657e-03 DIIS/ADIIS
   @DF-RHF iter   3:  -152.07081603814913   -5.67187e-02   5.78517e-04 DIIS/ADIIS
   @DF-RHF iter   4:  -152.07183142904637   -1.01539e-03   1.23831e-04 DIIS/ADIIS
   @DF-RHF iter   5:  -152.07188764416375   -5.62151e-05   4.46681e-05 DIIS
   @DF-RHF iter   6:  -152.07189384777098   -6.20361e-06   1.76424e-05 DIIS
   @DF-RHF iter   7:  -152.07189489200306   -1.04423e-06   3.34060e-06 DIIS
   @DF-RHF iter   8:  -152.07189495950706   -6.75040e-08   6.35035e-07 DIIS
  Energy and wave function converged.


  ==> Post-Iterations <==

    Orbital Energies [Eh]
    ---------------------

    Doubly Occupied:                                                      

       1Ap   -20.603412     2Ap   -20.545727     3Ap    -1.356903  
       4Ap    -1.300634     1App   -0.749560     5Ap    -0.672636  
       6Ap    -0.586176     7Ap    -0.535820     8Ap    -0.529092  
       2App   -0.471346  

    Virtual:                                                              

       9Ap     0.025243     3App    0.050781    10Ap     0.057328  
      11Ap     0.088458    12Ap     0.174109    13Ap     0.182152  
       4App    0.206429    14Ap     0.211852     5App    0.221940  
      15Ap     0.238037    16Ap     0.247489    17Ap     0.286573  
       6App    0.305302    18Ap     0.311825    19Ap     0.349530  
       7App    0.356158    20Ap     0.403544     8App    0.427569  
      21Ap     0.458239    22Ap     0.504090     9App    0.513742  
      23Ap     0.534283    10App    0.548657    24Ap     0.599220  
      25Ap     0.629290    11App    0.644041    26Ap     0.671223  
      27Ap     0.777788    12App    0.834083    28Ap     0.862351  
      29Ap     0.939136    30Ap     0.987832    13App    1.119809  
      31Ap     1.134838    14App    1.140634    32Ap     1.187787  
      15App    1.219639    33Ap     1.225428    34Ap     1.363364  
      35Ap     1.427536    16App    1.469865    36Ap     1.511704  
      37Ap     1.543309    38Ap     1.625109    17App    1.639530  
      18App    1.921742    39Ap     1.995464    19App    2.021700  
      40Ap     2.022599    41Ap     2.043108    20App    2.055951  
      21App    2.174174    42Ap     2.386022    22App    2.414711  
      43Ap     2.449555    44Ap     2.494754    45Ap     2.530529  
      46Ap     2.746628    47Ap     2.804434    23App    2.804515  
      48Ap     2.995875    49Ap     3.032155    24App    3.671768  
      50Ap     3.700671    25App    3.709686    51Ap     3.742044  
      26App    3.773947    52Ap     3.827456    53Ap     4.092547  
      54Ap     4.123633    27App    4.166945    55Ap     4.372821  

    Final Occupation by Irrep:
             Ap   App 
    DOCC [     8,    2 ]

  @DF-RHF Final Energy:  -152.07189495950706

   => Energetics <=

    Nuclear Repulsion Energy =             35.8657882857481241
    One-Electron Energy =                -281.1727403530944116
    Two-Electron Energy =                  93.2350571078392250
    Total Energy =                       -152.0718949595070626

Computation Completed


Properties will be evaluated at   0.000000,   0.000000,   0.000000 [a0]

Properties computed using the SCF density matrix


 Multipole Moments:

 ------------------------------------------------------------------------------------
     Multipole            Electronic (a.u.)      Nuclear  (a.u.)        Total (a.u.)
 ------------------------------------------------------------------------------------

 L = 1.  Multiply by 2.5417464519 to convert [e a0] to [Debye]
 Dipole X            :          0.2008435           -0.8057008           -0.6048573
 Dipole Y            :          0.0098585           -1.4558992           -1.4460407
 Dipole Z            :          0.0000000            0.0000000            0.0000000
 Magnitude           :                                                    1.5674457

 ------------------------------------------------------------------------------------

*** tstop() called on Lenovo-Y540-Zoha at Tue Sep 27 18:40:58 2022
Module time:
	user time   =        nan seconds =        nan minutes
	system time =        nan seconds =        nan minutes
	total time  =          1 seconds =       0.02 minutes
Total time:
	user time   =        nan seconds =        nan minutes
	system time =        nan seconds =        nan minutes
	total time  =        877 seconds =      14.62 minutes

    Psi4 stopped on: Tuesday, 27 September 2022 06:40PM
    Psi4 wall time for execution: 0:00:01.05


  //>>>>>>>>>>>>>>>>>>>>>>>>>>>>>>>>>>>//
  //          ManyBody Results         //
  //<<<<<<<<<<<<<<<<<<<<<<<<<<<<<<<<<<<//


   ==> N-Body: Counterpoise Corrected (CP) energies <==

        n-Body     Total Energy            Interaction Energy                          N-body Contribution to Interaction Energy
                   [Eh]                    [Eh]                  [kcal/mol]            [Eh]                  [kcal/mol]
             1  N/A                         0.000000000000        0.000000000000        0.000000000000        0.000000000000
  FULL/RTN   2  N/A                        -0.006135914878       -3.850344716185       -0.006135914878       -3.850344716185

