
Scratch directory: C:\Users\64292\AppData\Local\Temp/

  //>>>>>>>>>>>>>>>>>>>>>>>>>>>>>>>>>>>>>//
  // ManyBody Setup: N-Body Levels [1, 2]//
  //<<<<<<<<<<<<<<<<<<<<<<<<<<<<<<<<<<<<<//

        Number of 1-body computations:     2
        Number of 2-body computations:     1

    -----------------------------------------------------------------------
          Psi4: An Open-Source Ab Initio Electronic Structure Package
                               Psi4 1.6.1 release

                         Git: Rev {HEAD} 5b9f6e3 


    D. G. A. Smith, L. A. Burns, A. C. Simmonett, R. M. Parrish,
    M. C. Schieber, R. Galvelis, P. Kraus, H. Kruse, R. Di Remigio,
    A. Alenaizan, A. M. James, S. Lehtola, J. P. Misiewicz, M. Scheurer,
    R. A. Shaw, J. B. Schriber, Y. Xie, Z. L. Glick, D. A. Sirianni,
    J. S. O'Brien, J. M. Waldrop, A. Kumar, E. G. Hohenstein,
    B. P. Pritchard, B. R. Brooks, H. F. Schaefer III, A. Yu. Sokolov,
    K. Patkowski, A. E. DePrince III, U. Bozkaya, R. A. King,
    F. A. Evangelista, J. M. Turney, T. D. Crawford, C. D. Sherrill,
    J. Chem. Phys. 152(18) 184108 (2020). https://doi.org/10.1063/5.0006002

                            Additional Code Authors
    E. T. Seidl, C. L. Janssen, E. F. Valeev, M. L. Leininger,
    J. F. Gonthier, R. M. Richard, H. R. McAlexander, M. Saitow, X. Wang,
    P. Verma, M. H. Lechner, and A. Jiang

             Previous Authors, Complete List of Code Contributors,
                       and Citations for Specific Modules
    https://github.com/psi4/psi4/blob/master/codemeta.json
    https://github.com/psi4/psi4/graphs/contributors
    http://psicode.org/psi4manual/master/introduction.html#citing-psifour

    -----------------------------------------------------------------------


    Psi4 started on: Tuesday, 27 September 2022 06:25PM

    Process ID: 10544
    Host:       Lenovo-Y540-Zoha
    PSIDATADIR: C:\Users\64292\Anaconda3\envs\qm-tools\lib\share\psi4
    Memory:     476.8 MiB
    Threads:    1
    
  ==> Input QCSchema <==

--------------------------------------------------------------------------
{'driver': 'energy',
 'extras': {'psiapi': True, 'wfn_qcvars_only': True},
 'id': None,
 'keywords': {'function_kwargs': {}},
 'model': {'basis': 'aug-cc-pvdz', 'method': 'scf'},
 'molecule': {'atom_labels': ['1', '2', '3', '5', '6', '7'],
              'atomic_numbers': [8, 1, 1, 8, 1, 1],
              'fix_com': True,
              'fix_orientation': True,
              'fragment_charges': [0.0, 0.0],
              'fragment_multiplicities': [1, 1],
              'fragments': [[0, 1, 2], [3, 4, 5]],
              'geometry': [4.7773229722632446e-17, -0.05118338925575477, -3.116050043131342, 4.7773229722632446e-17,
                           -0.05118338925575477, -1.2263239176735146, 4.7773229722632446e-17, 1.7781852282291912,
                           -3.5898382770492736, 4.7773229722632446e-17, -0.05118338925575477, 2.931073558333708,
                           -0.42357052330016537, -1.6319701028005071, 3.875936621062622, 0.42357052330016376,
                           1.5296033242889961, 3.875936621062623],
              'mass_numbers': [16, 1, 1, 16, 1, 1],
              'masses': [15.99491461957, 1.00782503223, 1.00782503223, 15.99491461957, 1.00782503223, 1.00782503223],
              'molecular_charge': 0.0,
              'molecular_multiplicity': 1,
              'name': 'H4O2',
              'provenance': {'creator': 'QCElemental',
                             'routine': 'qcelemental.molparse.from_string',
                             'version': 'v0.25.0'},
              'real': [False, False, False, True, True, True],
              'schema_name': 'qcschema_molecule',
              'schema_version': 2,
              'symbols': ['O', 'H', 'H', 'O', 'H', 'H'],
              'validated': True},
 'protocols': {'stdout': True},
 'provenance': {'creator': 'QCElemental', 'routine': 'qcelemental.models.results', 'version': 'v0.25.0'},
 'schema_name': 'qcschema_input',
 'schema_version': 1}
--------------------------------------------------------------------------

Scratch directory: C:\Users\64292\AppData\Local\Temp/

*** tstart() called on Lenovo-Y540-Zoha
*** at Tue Sep 27 18:45:36 2022

   => Loading Basis Set <=

    Name: AUG-CC-PVDZ
    Role: ORBITAL
    Keyword: BASIS
    atoms 1, 4     entry O          line   254 file C:\Users\64292\Anaconda3\envs\qm-tools\lib\share\psi4\basis\aug-cc-pvdz.gbs 
    atoms 2-3, 5-6 entry H          line    40 file C:\Users\64292\Anaconda3\envs\qm-tools\lib\share\psi4\basis\aug-cc-pvdz.gbs 


         ---------------------------------------------------------
                                   SCF
               by Justin Turney, Rob Parrish, Andy Simmonett
                          and Daniel G. A. Smith
                              RHF Reference
                        1 Threads,    476 MiB Core
         ---------------------------------------------------------

  ==> Geometry <==

    Molecular point group: c1
    Full point group: C1

    Geometry (in Bohr), charge = 0, multiplicity = 1:

       Center              X                  Y                   Z               Mass       
    ------------   -----------------  -----------------  -----------------  -----------------
      Gh(O)           0.000000000000    -0.051183389256    -3.116050043131    15.994914619570
      Gh(H)           0.000000000000    -0.051183389256    -1.226323917674     1.007825032230
      Gh(H)           0.000000000000     1.778185228229    -3.589838277049     1.007825032230
         O            0.000000000000    -0.051183389256     2.931073558334    15.994914619570
         H           -0.423570523300    -1.631970102801     3.875936621063     1.007825032230
         H            0.423570523300     1.529603324289     3.875936621063     1.007825032230

  Running in c1 symmetry.

  Rotational constants: A =      7.04592  B =      0.17822  C =      0.17396 [cm^-1]
  Rotational constants: A = 211231.37430  B =   5343.02827  C =   5215.28924 [MHz]
  Nuclear repulsion =    8.772355975749338

  Charge       = 0
  Multiplicity = 1
  Electrons    = 10
  Nalpha       = 5
  Nbeta        = 5

  ==> Algorithm <==

  SCF Algorithm Type is DF.
  DIIS enabled.
  MOM disabled.
  Fractional occupation disabled.
  Guess Type is SAD.
  Energy threshold   = 1.00e-06
  Density threshold  = 1.00e-06
  Integral threshold = 1.00e-12

  ==> Primary Basis <==

  Basis Set: AUG-CC-PVDZ
    Blend: AUG-CC-PVDZ
    Number of shells: 38
    Number of basis functions: 82
    Number of Cartesian functions: 86
    Spherical Harmonics?: true
    Max angular momentum: 2

   => Loading Basis Set <=

    Name: (AUG-CC-PVDZ AUX)
    Role: JKFIT
    Keyword: DF_BASIS_SCF
    atoms 1, 4     entry O          line   270 file C:\Users\64292\Anaconda3\envs\qm-tools\lib\share\psi4\basis\aug-cc-pvdz-jkfit.gbs 
    atoms 2-3, 5-6 entry H          line    70 file C:\Users\64292\Anaconda3\envs\qm-tools\lib\share\psi4\basis\aug-cc-pvdz-jkfit.gbs 

  ==> Integral Setup <==

  DFHelper Memory: AOs need 0.017 GiB; user supplied 0.349 GiB. Using in-core AOs.

  ==> MemDFJK: Density-Fitted J/K Matrices <==

    J tasked:                   Yes
    K tasked:                   Yes
    wK tasked:                   No
    OpenMP threads:               1
    Memory [MiB]:               357
    Algorithm:                 Core
    Schwarz Cutoff:           1E-12
    Mask sparsity (%):       0.0000
    Fitting Condition:        1E-10

   => Auxiliary Basis Set <=

  Basis Set: (AUG-CC-PVDZ AUX)
    Blend: AUG-CC-PVDZ-JKFIT
    Number of shells: 104
    Number of basis functions: 300
    Number of Cartesian functions: 342
    Spherical Harmonics?: true
    Max angular momentum: 3

  Minimum eigenvalue in the overlap matrix is 2.0278380301E-03.
  Reciprocal condition number of the overlap matrix is 2.8657965546E-04.
    Using symmetric orthogonalization.

  ==> Pre-Iterations <==

  SCF Guess: Superposition of Atomic Densities via on-the-fly atomic UHF (no occupation information).

   -------------------------
    Irrep   Nso     Nmo    
   -------------------------
     A         82      82 
   -------------------------
    Total      82      82
   -------------------------

  ==> Iterations <==

                           Total Energy        Delta E     RMS |[F,P]|

   @DF-RHF iter SAD:   -75.40236281107170   -7.54024e+01   0.00000e+00 
   @DF-RHF iter   1:   -75.94509621106150   -5.42733e-01   5.50829e-03 DIIS/ADIIS
   @DF-RHF iter   2:   -75.99627940874990   -5.11832e-02   3.73003e-03 DIIS/ADIIS
   @DF-RHF iter   3:   -76.02937083294150   -3.30914e-02   2.79174e-04 DIIS/ADIIS
   @DF-RHF iter   4:   -76.02984186920159   -4.71036e-04   6.67518e-05 DIIS
   @DF-RHF iter   5:   -76.02987446639514   -3.25972e-05   1.62932e-05 DIIS
   @DF-RHF iter   6:   -76.02987754031831   -3.07392e-06   3.49644e-06 DIIS
   @DF-RHF iter   7:   -76.02987769523102   -1.54913e-07   6.42238e-07 DIIS
  Energy and wave function converged.


  ==> Post-Iterations <==

    Orbital Energies [Eh]
    ---------------------

    Doubly Occupied:                                                      

       1A    -20.575763     2A     -1.325835     3A     -0.721194  
       4A     -0.548247     5A     -0.500691  

    Virtual:                                                              

       6A      0.032662     7A      0.052639     8A      0.056076  
       9A      0.084873    10A      0.157638    11A      0.171888  
      12A      0.181627    13A      0.197828    14A      0.216818  
      15A      0.220238    16A      0.240188    17A      0.250041  
      18A      0.309196    19A      0.329025    20A      0.372627  
      21A      0.404915    22A      0.443991    23A      0.453723  
      24A      0.458622    25A      0.480938    26A      0.515959  
      27A      0.531276    28A      0.542443    29A      0.568708  
      30A      0.621511    31A      0.640837    32A      0.663164  
      33A      0.715855    34A      0.874862    35A      0.885131  
      36A      0.924898    37A      0.935459    38A      1.108074  
      39A      1.143657    40A      1.146595    41A      1.212940  
      42A      1.238053    43A      1.287193    44A      1.336298  
      45A      1.364116    46A      1.400072    47A      1.422652  
      48A      1.457775    49A      1.533980    50A      1.576004  
      51A      1.848018    52A      1.998284    53A      2.046603  
      54A      2.054563    55A      2.084449    56A      2.284902  
      57A      2.371201    58A      2.419914    59A      2.440783  
      60A      2.464286    61A      2.528696    62A      2.585080  
      63A      2.679997    64A      2.832886    65A      2.922739  
      66A      3.425310    67A      3.685572    68A      3.700875  
      69A      3.807038    70A      3.911075    71A      4.077537  
      72A      4.143737    73A      4.187164    74A      4.910114  
      75A      4.956483    76A      4.991757    77A      5.182372  
      78A      5.486771    79A      5.640681    80A      6.417599  
      81A      6.848578    82A     33.567854  

    Final Occupation by Irrep:
              A 
    DOCC [     5 ]

  @DF-RHF Final Energy:   -76.02987769523102

   => Energetics <=

    Nuclear Repulsion Energy =              8.7723559757493383
    One-Electron Energy =                -122.2609709012889851
    Two-Electron Energy =                  37.4587372303086283
    Total Energy =                        -76.0298776952310220

Computation Completed


Properties will be evaluated at   0.000000,   0.000000,   0.000000 [a0]

Properties computed using the SCF density matrix


 Multipole Moments:

 ------------------------------------------------------------------------------------
     Multipole            Electronic (a.u.)      Nuclear  (a.u.)        Total (a.u.)
 ------------------------------------------------------------------------------------

 L = 1.  Multiply by 2.5417464519 to convert [e a0] to [Debye]
 Dipole X            :          0.0000711           -0.0000000            0.0000711
 Dipole Y            :          0.5116722           -0.5118339           -0.0001617
 Dipole Z            :        -30.5141381           31.2004617            0.6863236
 Magnitude           :                                                    0.6863236

 ------------------------------------------------------------------------------------

*** tstop() called on Lenovo-Y540-Zoha at Tue Sep 27 18:45:37 2022
Module time:
	user time   =        nan seconds =        nan minutes
	system time =        nan seconds =        nan minutes
	total time  =          1 seconds =       0.02 minutes
Total time:
	user time   =        nan seconds =        nan minutes
	system time =        nan seconds =        nan minutes
	total time  =       1156 seconds =      19.27 minutes

    Psi4 stopped on: Tuesday, 27 September 2022 06:45PM
    Psi4 wall time for execution: 0:00:01.07


    -----------------------------------------------------------------------
          Psi4: An Open-Source Ab Initio Electronic Structure Package
                               Psi4 1.6.1 release

                         Git: Rev {HEAD} 5b9f6e3 


    D. G. A. Smith, L. A. Burns, A. C. Simmonett, R. M. Parrish,
    M. C. Schieber, R. Galvelis, P. Kraus, H. Kruse, R. Di Remigio,
    A. Alenaizan, A. M. James, S. Lehtola, J. P. Misiewicz, M. Scheurer,
    R. A. Shaw, J. B. Schriber, Y. Xie, Z. L. Glick, D. A. Sirianni,
    J. S. O'Brien, J. M. Waldrop, A. Kumar, E. G. Hohenstein,
    B. P. Pritchard, B. R. Brooks, H. F. Schaefer III, A. Yu. Sokolov,
    K. Patkowski, A. E. DePrince III, U. Bozkaya, R. A. King,
    F. A. Evangelista, J. M. Turney, T. D. Crawford, C. D. Sherrill,
    J. Chem. Phys. 152(18) 184108 (2020). https://doi.org/10.1063/5.0006002

                            Additional Code Authors
    E. T. Seidl, C. L. Janssen, E. F. Valeev, M. L. Leininger,
    J. F. Gonthier, R. M. Richard, H. R. McAlexander, M. Saitow, X. Wang,
    P. Verma, M. H. Lechner, and A. Jiang

             Previous Authors, Complete List of Code Contributors,
                       and Citations for Specific Modules
    https://github.com/psi4/psi4/blob/master/codemeta.json
    https://github.com/psi4/psi4/graphs/contributors
    http://psicode.org/psi4manual/master/introduction.html#citing-psifour

    -----------------------------------------------------------------------


    Psi4 started on: Tuesday, 27 September 2022 06:25PM

    Process ID: 10544
    Host:       Lenovo-Y540-Zoha
    PSIDATADIR: C:\Users\64292\Anaconda3\envs\qm-tools\lib\share\psi4
    Memory:     476.8 MiB
    Threads:    1
    
  ==> Input QCSchema <==

--------------------------------------------------------------------------
{'driver': 'energy',
 'extras': {'psiapi': True, 'wfn_qcvars_only': True},
 'id': None,
 'keywords': {'function_kwargs': {}},
 'model': {'basis': 'aug-cc-pvdz', 'method': 'scf'},
 'molecule': {'atom_labels': ['1', '2', '3', '5', '6', '7'],
              'atomic_numbers': [8, 1, 1, 8, 1, 1],
              'fix_com': True,
              'fix_orientation': True,
              'fragment_charges': [0.0, 0.0],
              'fragment_multiplicities': [1, 1],
              'fragments': [[0, 1, 2], [3, 4, 5]],
              'geometry': [4.7773229722632446e-17, -0.05118338925575477, -3.116050043131342, 4.7773229722632446e-17,
                           -0.05118338925575477, -1.2263239176735146, 4.7773229722632446e-17, 1.7781852282291912,
                           -3.5898382770492736, 4.7773229722632446e-17, -0.05118338925575477, 2.931073558333708,
                           -0.42357052330016537, -1.6319701028005071, 3.875936621062622, 0.42357052330016376,
                           1.5296033242889961, 3.875936621062623],
              'mass_numbers': [16, 1, 1, 16, 1, 1],
              'masses': [15.99491461957, 1.00782503223, 1.00782503223, 15.99491461957, 1.00782503223, 1.00782503223],
              'molecular_charge': 0.0,
              'molecular_multiplicity': 1,
              'name': 'H4O2',
              'provenance': {'creator': 'QCElemental',
                             'routine': 'qcelemental.molparse.from_string',
                             'version': 'v0.25.0'},
              'real': [True, True, True, False, False, False],
              'schema_name': 'qcschema_molecule',
              'schema_version': 2,
              'symbols': ['O', 'H', 'H', 'O', 'H', 'H'],
              'validated': True},
 'protocols': {'stdout': True},
 'provenance': {'creator': 'QCElemental', 'routine': 'qcelemental.models.results', 'version': 'v0.25.0'},
 'schema_name': 'qcschema_input',
 'schema_version': 1}
--------------------------------------------------------------------------

Scratch directory: C:\Users\64292\AppData\Local\Temp/

*** tstart() called on Lenovo-Y540-Zoha
*** at Tue Sep 27 18:45:37 2022

   => Loading Basis Set <=

    Name: AUG-CC-PVDZ
    Role: ORBITAL
    Keyword: BASIS
    atoms 1, 4     entry O          line   254 file C:\Users\64292\Anaconda3\envs\qm-tools\lib\share\psi4\basis\aug-cc-pvdz.gbs 
    atoms 2-3, 5-6 entry H          line    40 file C:\Users\64292\Anaconda3\envs\qm-tools\lib\share\psi4\basis\aug-cc-pvdz.gbs 


         ---------------------------------------------------------
                                   SCF
               by Justin Turney, Rob Parrish, Andy Simmonett
                          and Daniel G. A. Smith
                              RHF Reference
                        1 Threads,    476 MiB Core
         ---------------------------------------------------------

  ==> Geometry <==

    Molecular point group: c1
    Full point group: C1

    Geometry (in Bohr), charge = 0, multiplicity = 1:

       Center              X                  Y                   Z               Mass       
    ------------   -----------------  -----------------  -----------------  -----------------
         O            0.000000000000    -0.051183389256    -3.116050043131    15.994914619570
         H            0.000000000000    -0.051183389256    -1.226323917674     1.007825032230
         H            0.000000000000     1.778185228229    -3.589838277049     1.007825032230
      Gh(O)           0.000000000000    -0.051183389256     2.931073558334    15.994914619570
      Gh(H)          -0.423570523300    -1.631970102801     3.875936621063     1.007825032230
      Gh(H)           0.423570523300     1.529603324289     3.875936621063     1.007825032230

  Running in c1 symmetry.

  Rotational constants: A =      7.04592  B =      0.17822  C =      0.17396 [cm^-1]
  Rotational constants: A = 211231.37430  B =   5343.02827  C =   5215.28924 [MHz]
  Nuclear repulsion =    8.801420354575152

  Charge       = 0
  Multiplicity = 1
  Electrons    = 10
  Nalpha       = 5
  Nbeta        = 5

  ==> Algorithm <==

  SCF Algorithm Type is DF.
  DIIS enabled.
  MOM disabled.
  Fractional occupation disabled.
  Guess Type is SAD.
  Energy threshold   = 1.00e-06
  Density threshold  = 1.00e-06
  Integral threshold = 1.00e-12

  ==> Primary Basis <==

  Basis Set: AUG-CC-PVDZ
    Blend: AUG-CC-PVDZ
    Number of shells: 38
    Number of basis functions: 82
    Number of Cartesian functions: 86
    Spherical Harmonics?: true
    Max angular momentum: 2

   => Loading Basis Set <=

    Name: (AUG-CC-PVDZ AUX)
    Role: JKFIT
    Keyword: DF_BASIS_SCF
    atoms 1, 4     entry O          line   270 file C:\Users\64292\Anaconda3\envs\qm-tools\lib\share\psi4\basis\aug-cc-pvdz-jkfit.gbs 
    atoms 2-3, 5-6 entry H          line    70 file C:\Users\64292\Anaconda3\envs\qm-tools\lib\share\psi4\basis\aug-cc-pvdz-jkfit.gbs 

  ==> Integral Setup <==

  DFHelper Memory: AOs need 0.017 GiB; user supplied 0.349 GiB. Using in-core AOs.

  ==> MemDFJK: Density-Fitted J/K Matrices <==

    J tasked:                   Yes
    K tasked:                   Yes
    wK tasked:                   No
    OpenMP threads:               1
    Memory [MiB]:               357
    Algorithm:                 Core
    Schwarz Cutoff:           1E-12
    Mask sparsity (%):       0.0000
    Fitting Condition:        1E-10

   => Auxiliary Basis Set <=

  Basis Set: (AUG-CC-PVDZ AUX)
    Blend: AUG-CC-PVDZ-JKFIT
    Number of shells: 104
    Number of basis functions: 300
    Number of Cartesian functions: 342
    Spherical Harmonics?: true
    Max angular momentum: 3

  Minimum eigenvalue in the overlap matrix is 2.0278380301E-03.
  Reciprocal condition number of the overlap matrix is 2.8657965546E-04.
    Using symmetric orthogonalization.

  ==> Pre-Iterations <==

  SCF Guess: Superposition of Atomic Densities via on-the-fly atomic UHF (no occupation information).

   -------------------------
    Irrep   Nso     Nmo    
   -------------------------
     A         82      82 
   -------------------------
    Total      82      82
   -------------------------

  ==> Iterations <==

                           Total Energy        Delta E     RMS |[F,P]|

   @DF-RHF iter SAD:   -75.41487089903460   -7.54149e+01   0.00000e+00 
   @DF-RHF iter   1:   -75.94941321955073   -5.34542e-01   5.50537e-03 DIIS/ADIIS
   @DF-RHF iter   2:   -76.00129101193689   -5.18778e-02   3.77461e-03 DIIS/ADIIS
   @DF-RHF iter   3:   -76.03524335937105   -3.39523e-02   2.81182e-04 DIIS/ADIIS
   @DF-RHF iter   4:   -76.03569690985547   -4.53550e-04   6.60399e-05 DIIS
   @DF-RHF iter   5:   -76.03572706989817   -3.01600e-05   1.56315e-05 DIIS
   @DF-RHF iter   6:   -76.03572964099010   -2.57109e-06   3.09152e-06 DIIS
   @DF-RHF iter   7:   -76.03572974434496   -1.03355e-07   5.04783e-07 DIIS
  Energy and wave function converged.


  ==> Post-Iterations <==

    Orbital Energies [Eh]
    ---------------------

    Doubly Occupied:                                                      

       1A    -20.584248     2A     -1.335644     3A     -0.696505  
       4A     -0.577377     5A     -0.506073  

    Virtual:                                                              

       6A      0.024549     7A      0.048870     8A      0.058872  
       9A      0.082191    10A      0.136912    11A      0.142567  
      12A      0.177939    13A      0.193976    14A      0.218892  
      15A      0.224987    16A      0.228184    17A      0.267558  
      18A      0.320419    19A      0.351021    20A      0.376814  
      21A      0.397967    22A      0.406867    23A      0.415231  
      24A      0.433417    25A      0.463244    26A      0.470578  
      27A      0.489002    28A      0.500658    29A      0.541546  
      30A      0.581784    31A      0.627367    32A      0.650352  
      33A      0.762717    34A      0.826735    35A      0.903398  
      36A      0.946465    37A      1.031152    38A      1.107145  
      39A      1.142892    40A      1.167199    41A      1.194934  
      42A      1.205641    43A      1.277016    44A      1.292228  
      45A      1.308551    46A      1.333612    47A      1.347988  
      48A      1.420346    49A      1.502923    50A      1.543107  
      51A      1.712275    52A      1.991135    53A      1.993229  
      54A      2.051572    55A      2.087471    56A      2.309052  
      57A      2.362946    58A      2.380568    59A      2.390217  
      60A      2.425979    61A      2.458841    62A      2.581980  
      63A      2.736518    64A      2.875871    65A      2.985753  
      66A      3.388341    67A      3.674631    68A      3.706195  
      69A      3.718663    70A      3.923212    71A      3.951486  
      72A      4.050849    73A      4.266207    74A      4.877857  
      75A      4.940582    76A      5.037391    77A      5.324612  
      78A      5.328152    79A      5.578062    80A      6.307512  
      81A      6.811671    82A     33.526861  

    Final Occupation by Irrep:
              A 
    DOCC [     5 ]

  @DF-RHF Final Energy:   -76.03572974434496

   => Energetics <=

    Nuclear Repulsion Energy =              8.8014203545751517
    One-Electron Energy =                -122.2745868143091172
    Two-Electron Energy =                  37.4374367153889906
    Total Energy =                        -76.0357297443449625

Computation Completed


Properties will be evaluated at   0.000000,   0.000000,   0.000000 [a0]

Properties computed using the SCF density matrix


 Multipole Moments:

 ------------------------------------------------------------------------------------
     Multipole            Electronic (a.u.)      Nuclear  (a.u.)        Total (a.u.)
 ------------------------------------------------------------------------------------

 L = 1.  Multiply by 2.5417464519 to convert [e a0] to [Debye]
 Dipole X            :          0.0000448            0.0000000            0.0000448
 Dipole Y            :         -0.6853167            1.3175347            0.6322181
 Dipole Z            :         30.2338235          -29.7445625            0.4892609
 Magnitude           :                                                    0.7994222

 ------------------------------------------------------------------------------------

*** tstop() called on Lenovo-Y540-Zoha at Tue Sep 27 18:45:38 2022
Module time:
	user time   =        nan seconds =        nan minutes
	system time =        nan seconds =        nan minutes
	total time  =          1 seconds =       0.02 minutes
Total time:
	user time   =        nan seconds =        nan minutes
	system time =        nan seconds =        nan minutes
	total time  =       1157 seconds =      19.28 minutes

    Psi4 stopped on: Tuesday, 27 September 2022 06:45PM
    Psi4 wall time for execution: 0:00:01.06


    -----------------------------------------------------------------------
          Psi4: An Open-Source Ab Initio Electronic Structure Package
                               Psi4 1.6.1 release

                         Git: Rev {HEAD} 5b9f6e3 


    D. G. A. Smith, L. A. Burns, A. C. Simmonett, R. M. Parrish,
    M. C. Schieber, R. Galvelis, P. Kraus, H. Kruse, R. Di Remigio,
    A. Alenaizan, A. M. James, S. Lehtola, J. P. Misiewicz, M. Scheurer,
    R. A. Shaw, J. B. Schriber, Y. Xie, Z. L. Glick, D. A. Sirianni,
    J. S. O'Brien, J. M. Waldrop, A. Kumar, E. G. Hohenstein,
    B. P. Pritchard, B. R. Brooks, H. F. Schaefer III, A. Yu. Sokolov,
    K. Patkowski, A. E. DePrince III, U. Bozkaya, R. A. King,
    F. A. Evangelista, J. M. Turney, T. D. Crawford, C. D. Sherrill,
    J. Chem. Phys. 152(18) 184108 (2020). https://doi.org/10.1063/5.0006002

                            Additional Code Authors
    E. T. Seidl, C. L. Janssen, E. F. Valeev, M. L. Leininger,
    J. F. Gonthier, R. M. Richard, H. R. McAlexander, M. Saitow, X. Wang,
    P. Verma, M. H. Lechner, and A. Jiang

             Previous Authors, Complete List of Code Contributors,
                       and Citations for Specific Modules
    https://github.com/psi4/psi4/blob/master/codemeta.json
    https://github.com/psi4/psi4/graphs/contributors
    http://psicode.org/psi4manual/master/introduction.html#citing-psifour

    -----------------------------------------------------------------------


    Psi4 started on: Tuesday, 27 September 2022 06:25PM

    Process ID: 10544
    Host:       Lenovo-Y540-Zoha
    PSIDATADIR: C:\Users\64292\Anaconda3\envs\qm-tools\lib\share\psi4
    Memory:     476.8 MiB
    Threads:    1
    
  ==> Input QCSchema <==

--------------------------------------------------------------------------
{'driver': 'energy',
 'extras': {'psiapi': True, 'wfn_qcvars_only': True},
 'id': None,
 'keywords': {'function_kwargs': {}},
 'model': {'basis': 'aug-cc-pvdz', 'method': 'scf'},
 'molecule': {'atom_labels': ['1', '2', '3', '5', '6', '7'],
              'atomic_numbers': [8, 1, 1, 8, 1, 1],
              'fix_com': True,
              'fix_orientation': True,
              'fragment_charges': [0.0, 0.0],
              'fragment_multiplicities': [1, 1],
              'fragments': [[0, 1, 2], [3, 4, 5]],
              'geometry': [4.7773229722632446e-17, -0.05118338925575477, -3.116050043131342, 4.7773229722632446e-17,
                           -0.05118338925575477, -1.2263239176735146, 4.7773229722632446e-17, 1.7781852282291912,
                           -3.5898382770492736, 4.7773229722632446e-17, -0.05118338925575477, 2.931073558333708,
                           -0.42357052330016537, -1.6319701028005071, 3.875936621062622, 0.42357052330016376,
                           1.5296033242889961, 3.875936621062623],
              'mass_numbers': [16, 1, 1, 16, 1, 1],
              'masses': [15.99491461957, 1.00782503223, 1.00782503223, 15.99491461957, 1.00782503223, 1.00782503223],
              'molecular_charge': 0.0,
              'molecular_multiplicity': 1,
              'name': 'H4O2',
              'provenance': {'creator': 'QCElemental',
                             'routine': 'qcelemental.molparse.from_string',
                             'version': 'v0.25.0'},
              'real': [True, True, True, True, True, True],
              'schema_name': 'qcschema_molecule',
              'schema_version': 2,
              'symbols': ['O', 'H', 'H', 'O', 'H', 'H'],
              'validated': True},
 'protocols': {'stdout': True},
 'provenance': {'creator': 'QCElemental', 'routine': 'qcelemental.models.results', 'version': 'v0.25.0'},
 'schema_name': 'qcschema_input',
 'schema_version': 1}
--------------------------------------------------------------------------

Scratch directory: C:\Users\64292\AppData\Local\Temp/

*** tstart() called on Lenovo-Y540-Zoha
*** at Tue Sep 27 18:45:38 2022

   => Loading Basis Set <=

    Name: AUG-CC-PVDZ
    Role: ORBITAL
    Keyword: BASIS
    atoms 1, 4     entry O          line   254 file C:\Users\64292\Anaconda3\envs\qm-tools\lib\share\psi4\basis\aug-cc-pvdz.gbs 
    atoms 2-3, 5-6 entry H          line    40 file C:\Users\64292\Anaconda3\envs\qm-tools\lib\share\psi4\basis\aug-cc-pvdz.gbs 


         ---------------------------------------------------------
                                   SCF
               by Justin Turney, Rob Parrish, Andy Simmonett
                          and Daniel G. A. Smith
                              RHF Reference
                        1 Threads,    476 MiB Core
         ---------------------------------------------------------

  ==> Geometry <==

    Molecular point group: c1
    Full point group: C1

    Geometry (in Bohr), charge = 0, multiplicity = 1:

       Center              X                  Y                   Z               Mass       
    ------------   -----------------  -----------------  -----------------  -----------------
         O            0.000000000000    -0.051183389256    -3.116050043131    15.994914619570
         H            0.000000000000    -0.051183389256    -1.226323917674     1.007825032230
         H            0.000000000000     1.778185228229    -3.589838277049     1.007825032230
         O            0.000000000000    -0.051183389256     2.931073558334    15.994914619570
         H           -0.423570523300    -1.631970102801     3.875936621063     1.007825032230
         H            0.423570523300     1.529603324289     3.875936621063     1.007825032230

  Running in c1 symmetry.

  Rotational constants: A =      7.04592  B =      0.17822  C =      0.17396 [cm^-1]
  Rotational constants: A = 211231.37430  B =   5343.02827  C =   5215.28924 [MHz]
  Nuclear repulsion =   34.119519069561385

  Charge       = 0
  Multiplicity = 1
  Electrons    = 20
  Nalpha       = 10
  Nbeta        = 10

  ==> Algorithm <==

  SCF Algorithm Type is DF.
  DIIS enabled.
  MOM disabled.
  Fractional occupation disabled.
  Guess Type is SAD.
  Energy threshold   = 1.00e-06
  Density threshold  = 1.00e-06
  Integral threshold = 1.00e-12

  ==> Primary Basis <==

  Basis Set: AUG-CC-PVDZ
    Blend: AUG-CC-PVDZ
    Number of shells: 38
    Number of basis functions: 82
    Number of Cartesian functions: 86
    Spherical Harmonics?: true
    Max angular momentum: 2

   => Loading Basis Set <=

    Name: (AUG-CC-PVDZ AUX)
    Role: JKFIT
    Keyword: DF_BASIS_SCF
    atoms 1, 4     entry O          line   270 file C:\Users\64292\Anaconda3\envs\qm-tools\lib\share\psi4\basis\aug-cc-pvdz-jkfit.gbs 
    atoms 2-3, 5-6 entry H          line    70 file C:\Users\64292\Anaconda3\envs\qm-tools\lib\share\psi4\basis\aug-cc-pvdz-jkfit.gbs 

  ==> Integral Setup <==

  DFHelper Memory: AOs need 0.017 GiB; user supplied 0.349 GiB. Using in-core AOs.

  ==> MemDFJK: Density-Fitted J/K Matrices <==

    J tasked:                   Yes
    K tasked:                   Yes
    wK tasked:                   No
    OpenMP threads:               1
    Memory [MiB]:               357
    Algorithm:                 Core
    Schwarz Cutoff:           1E-12
    Mask sparsity (%):       0.0000
    Fitting Condition:        1E-10

   => Auxiliary Basis Set <=

  Basis Set: (AUG-CC-PVDZ AUX)
    Blend: AUG-CC-PVDZ-JKFIT
    Number of shells: 104
    Number of basis functions: 300
    Number of Cartesian functions: 342
    Spherical Harmonics?: true
    Max angular momentum: 3

  Minimum eigenvalue in the overlap matrix is 2.0278380301E-03.
  Reciprocal condition number of the overlap matrix is 2.8657965546E-04.
    Using symmetric orthogonalization.

  ==> Pre-Iterations <==

  SCF Guess: Superposition of Atomic Densities via on-the-fly atomic UHF (no occupation information).

   -------------------------
    Irrep   Nso     Nmo    
   -------------------------
     A         82      82 
   -------------------------
    Total      82      82
   -------------------------

  ==> Iterations <==

                           Total Energy        Delta E     RMS |[F,P]|

   @DF-RHF iter SAD:  -150.86141315363551   -1.50861e+02   0.00000e+00 
   @DF-RHF iter   1:  -151.91064060027782   -1.04923e+00   7.57215e-03 DIIS/ADIIS
   @DF-RHF iter   2:  -152.01075043734158   -1.00110e-01   5.01744e-03 DIIS/ADIIS
   @DF-RHF iter   3:  -152.07040821274768   -5.96578e-02   4.08912e-04 DIIS/ADIIS
   @DF-RHF iter   4:  -152.07135975744541   -9.51545e-04   9.00263e-05 DIIS
   @DF-RHF iter   5:  -152.07141666798043   -5.69105e-05   2.62989e-05 DIIS
   @DF-RHF iter   6:  -152.07142202585209   -5.35787e-06   1.20083e-05 DIIS
   @DF-RHF iter   7:  -152.07142271850145   -6.92649e-07   2.60937e-06 DIIS
   @DF-RHF iter   8:  -152.07142278643664   -6.79352e-08   4.50192e-07 DIIS
  Energy and wave function converged.


  ==> Post-Iterations <==

    Orbital Energies [Eh]
    ---------------------

    Doubly Occupied:                                                      

       1A    -20.597150     2A    -20.556070     3A     -1.348590  
       4A     -1.309172     5A     -0.742844     6A     -0.673046  
       7A     -0.578839     8A     -0.546310     9A     -0.523376  
      10A     -0.479755  

    Virtual:                                                              

      11A      0.025928    12A      0.049116    13A      0.058216  
      14A      0.090625    15A      0.174455    16A      0.180125  
      17A      0.194958    18A      0.213580    19A      0.232945  
      20A      0.237063    21A      0.246734    22A      0.266829  
      23A      0.299796    24A      0.307784    25A      0.356177  
      26A      0.364182    27A      0.409378    28A      0.426417  
      29A      0.438381    30A      0.455844    31A      0.520418  
      32A      0.529961    33A      0.534345    34A      0.582493  
      35A      0.630127    36A      0.655218    37A      0.667940  
      38A      0.778183    39A      0.855163    40A      0.874156  
      41A      0.923688    42A      0.988909    43A      1.055852  
      44A      1.126244    45A      1.139084    46A      1.168978  
      47A      1.197319    48A      1.224106    49A      1.326390  
      50A      1.431717    51A      1.461968    52A      1.502526  
      53A      1.528971    54A      1.582105    55A      1.612352  
      56A      1.928849    57A      1.961700    58A      2.015912  
      59A      2.026727    60A      2.030174    61A      2.040571  
      62A      2.117749    63A      2.341778    64A      2.375349  
      65A      2.440082    66A      2.476617    67A      2.510991  
      68A      2.702490    69A      2.752776    70A      2.790312  
      71A      2.946219    72A      3.017118    73A      3.644893  
      74A      3.678906    75A      3.703578    76A      3.733902  
      77A      3.757225    78A      3.761235    79A      4.063676  
      80A      4.121539    81A      4.172708    82A      4.319231  

    Final Occupation by Irrep:
              A 
    DOCC [    10 ]

  @DF-RHF Final Energy:  -152.07142278643664

   => Energetics <=

    Nuclear Repulsion Energy =             34.1195190695613846
    One-Electron Energy =                -277.6715592878058487
    Two-Electron Energy =                  91.4806174318078149
    Total Energy =                       -152.0714227864366421

Computation Completed


Properties will be evaluated at   0.000000,   0.000000,   0.000000 [a0]

Properties computed using the SCF density matrix


 Multipole Moments:

 ------------------------------------------------------------------------------------
     Multipole            Electronic (a.u.)      Nuclear  (a.u.)        Total (a.u.)
 ------------------------------------------------------------------------------------

 L = 1.  Multiply by 2.5417464519 to convert [e a0] to [Debye]
 Dipole X            :         -0.0006075           -0.0000000           -0.0006075
 Dipole Y            :         -0.1969793            0.8057008            0.6087215
 Dipole Z            :         -0.0942787            1.4558992            1.3616205
 Magnitude           :                                                    1.4914934

 ------------------------------------------------------------------------------------

*** tstop() called on Lenovo-Y540-Zoha at Tue Sep 27 18:45:39 2022
Module time:
	user time   =        nan seconds =        nan minutes
	system time =        nan seconds =        nan minutes
	total time  =          1 seconds =       0.02 minutes
Total time:
	user time   =        nan seconds =        nan minutes
	system time =        nan seconds =        nan minutes
	total time  =       1158 seconds =      19.30 minutes

    Psi4 stopped on: Tuesday, 27 September 2022 06:45PM
    Psi4 wall time for execution: 0:00:01.03


  //>>>>>>>>>>>>>>>>>>>>>>>>>>>>>>>>>>>//
  //          ManyBody Results         //
  //<<<<<<<<<<<<<<<<<<<<<<<<<<<<<<<<<<<//


   ==> N-Body: Counterpoise Corrected (CP) energies <==

        n-Body     Total Energy            Interaction Energy                          N-body Contribution to Interaction Energy
                   [Eh]                    [Eh]                  [kcal/mol]            [Eh]                  [kcal/mol]
             1  N/A                         0.000000000000        0.000000000000        0.000000000000        0.000000000000
  FULL/RTN   2  N/A                        -0.005815346861       -3.649185248365       -0.005815346861       -3.649185248365

