
Scratch directory: C:\Users\64292\AppData\Local\Temp/

  //>>>>>>>>>>>>>>>>>>>>>>>>>>>>>>>>>>>>>//
  // ManyBody Setup: N-Body Levels [1, 2]//
  //<<<<<<<<<<<<<<<<<<<<<<<<<<<<<<<<<<<<<//

        Number of 1-body computations:     2
        Number of 2-body computations:     1

    -----------------------------------------------------------------------
          Psi4: An Open-Source Ab Initio Electronic Structure Package
                               Psi4 1.6.1 release

                         Git: Rev {HEAD} 5b9f6e3 


    D. G. A. Smith, L. A. Burns, A. C. Simmonett, R. M. Parrish,
    M. C. Schieber, R. Galvelis, P. Kraus, H. Kruse, R. Di Remigio,
    A. Alenaizan, A. M. James, S. Lehtola, J. P. Misiewicz, M. Scheurer,
    R. A. Shaw, J. B. Schriber, Y. Xie, Z. L. Glick, D. A. Sirianni,
    J. S. O'Brien, J. M. Waldrop, A. Kumar, E. G. Hohenstein,
    B. P. Pritchard, B. R. Brooks, H. F. Schaefer III, A. Yu. Sokolov,
    K. Patkowski, A. E. DePrince III, U. Bozkaya, R. A. King,
    F. A. Evangelista, J. M. Turney, T. D. Crawford, C. D. Sherrill,
    J. Chem. Phys. 152(18) 184108 (2020). https://doi.org/10.1063/5.0006002

                            Additional Code Authors
    E. T. Seidl, C. L. Janssen, E. F. Valeev, M. L. Leininger,
    J. F. Gonthier, R. M. Richard, H. R. McAlexander, M. Saitow, X. Wang,
    P. Verma, M. H. Lechner, and A. Jiang

             Previous Authors, Complete List of Code Contributors,
                       and Citations for Specific Modules
    https://github.com/psi4/psi4/blob/master/codemeta.json
    https://github.com/psi4/psi4/graphs/contributors
    http://psicode.org/psi4manual/master/introduction.html#citing-psifour

    -----------------------------------------------------------------------


    Psi4 started on: Tuesday, 27 September 2022 06:25PM

    Process ID: 10544
    Host:       Lenovo-Y540-Zoha
    PSIDATADIR: C:\Users\64292\Anaconda3\envs\qm-tools\lib\share\psi4
    Memory:     476.8 MiB
    Threads:    1
    
  ==> Input QCSchema <==

--------------------------------------------------------------------------
{'driver': 'energy',
 'extras': {'psiapi': True, 'wfn_qcvars_only': True},
 'id': None,
 'keywords': {'function_kwargs': {}},
 'model': {'basis': 'aug-cc-pvdz', 'method': 'scf'},
 'molecule': {'atom_labels': ['1', '2', '3', '5', '6', '7'],
              'atomic_numbers': [8, 1, 1, 8, 1, 1],
              'fix_com': True,
              'fix_orientation': True,
              'fragment_charges': [0.0, 0.0],
              'fragment_multiplicities': [1, 1],
              'fragments': [[0, 1, 2], [3, 4, 5]],
              'geometry': [3.08214385307306e-17, -0.05118338925575476, -3.116050043131342, 3.08214385307306e-17,
                           -0.05118338925575476, -1.2263239176735146, 3.08214385307306e-17, 1.7781852282291912,
                           -3.5898382770492736, 3.08214385307306e-17, -0.05118338925575476, 2.931073558333708,
                           1.1572161902445866, 1.106032800988831, 3.875936621062623, -1.1572161902445877,
                           -1.2083995795003422, 3.875936621062622],
              'mass_numbers': [16, 1, 1, 16, 1, 1],
              'masses': [15.99491461957, 1.00782503223, 1.00782503223, 15.99491461957, 1.00782503223, 1.00782503223],
              'molecular_charge': 0.0,
              'molecular_multiplicity': 1,
              'name': 'H4O2',
              'provenance': {'creator': 'QCElemental',
                             'routine': 'qcelemental.molparse.from_string',
                             'version': 'v0.25.0'},
              'real': [False, False, False, True, True, True],
              'schema_name': 'qcschema_molecule',
              'schema_version': 2,
              'symbols': ['O', 'H', 'H', 'O', 'H', 'H'],
              'validated': True},
 'protocols': {'stdout': True},
 'provenance': {'creator': 'QCElemental', 'routine': 'qcelemental.models.results', 'version': 'v0.25.0'},
 'schema_name': 'qcschema_input',
 'schema_version': 1}
--------------------------------------------------------------------------

Scratch directory: C:\Users\64292\AppData\Local\Temp/

*** tstart() called on Lenovo-Y540-Zoha
*** at Tue Sep 27 18:46:12 2022

   => Loading Basis Set <=

    Name: AUG-CC-PVDZ
    Role: ORBITAL
    Keyword: BASIS
    atoms 1, 4     entry O          line   254 file C:\Users\64292\Anaconda3\envs\qm-tools\lib\share\psi4\basis\aug-cc-pvdz.gbs 
    atoms 2-3, 5-6 entry H          line    40 file C:\Users\64292\Anaconda3\envs\qm-tools\lib\share\psi4\basis\aug-cc-pvdz.gbs 


         ---------------------------------------------------------
                                   SCF
               by Justin Turney, Rob Parrish, Andy Simmonett
                          and Daniel G. A. Smith
                              RHF Reference
                        1 Threads,    476 MiB Core
         ---------------------------------------------------------

  ==> Geometry <==

    Molecular point group: c1
    Full point group: C1

    Geometry (in Bohr), charge = 0, multiplicity = 1:

       Center              X                  Y                   Z               Mass       
    ------------   -----------------  -----------------  -----------------  -----------------
      Gh(O)           0.000000000000    -0.051183389256    -3.116050043131    15.994914619570
      Gh(H)           0.000000000000    -0.051183389256    -1.226323917674     1.007825032230
      Gh(H)           0.000000000000     1.778185228229    -3.589838277049     1.007825032230
         O            0.000000000000    -0.051183389256     2.931073558334    15.994914619570
         H            1.157216190245     1.106032800989     3.875936621063     1.007825032230
         H           -1.157216190245    -1.208399579500     3.875936621063     1.007825032230

  Running in c1 symmetry.

  Rotational constants: A =      7.04515  B =      0.17769  C =      0.17447 [cm^-1]
  Rotational constants: A = 211208.36802  B =   5327.06239  C =   5230.60530 [MHz]
  Nuclear repulsion =    8.772355975749338

  Charge       = 0
  Multiplicity = 1
  Electrons    = 10
  Nalpha       = 5
  Nbeta        = 5

  ==> Algorithm <==

  SCF Algorithm Type is DF.
  DIIS enabled.
  MOM disabled.
  Fractional occupation disabled.
  Guess Type is SAD.
  Energy threshold   = 1.00e-06
  Density threshold  = 1.00e-06
  Integral threshold = 1.00e-12

  ==> Primary Basis <==

  Basis Set: AUG-CC-PVDZ
    Blend: AUG-CC-PVDZ
    Number of shells: 38
    Number of basis functions: 82
    Number of Cartesian functions: 86
    Spherical Harmonics?: true
    Max angular momentum: 2

   => Loading Basis Set <=

    Name: (AUG-CC-PVDZ AUX)
    Role: JKFIT
    Keyword: DF_BASIS_SCF
    atoms 1, 4     entry O          line   270 file C:\Users\64292\Anaconda3\envs\qm-tools\lib\share\psi4\basis\aug-cc-pvdz-jkfit.gbs 
    atoms 2-3, 5-6 entry H          line    70 file C:\Users\64292\Anaconda3\envs\qm-tools\lib\share\psi4\basis\aug-cc-pvdz-jkfit.gbs 

  ==> Integral Setup <==

  DFHelper Memory: AOs need 0.017 GiB; user supplied 0.349 GiB. Using in-core AOs.

  ==> MemDFJK: Density-Fitted J/K Matrices <==

    J tasked:                   Yes
    K tasked:                   Yes
    wK tasked:                   No
    OpenMP threads:               1
    Memory [MiB]:               357
    Algorithm:                 Core
    Schwarz Cutoff:           1E-12
    Mask sparsity (%):       0.0000
    Fitting Condition:        1E-10

   => Auxiliary Basis Set <=

  Basis Set: (AUG-CC-PVDZ AUX)
    Blend: AUG-CC-PVDZ-JKFIT
    Number of shells: 104
    Number of basis functions: 300
    Number of Cartesian functions: 342
    Spherical Harmonics?: true
    Max angular momentum: 3

  Minimum eigenvalue in the overlap matrix is 2.1209845519E-03.
  Reciprocal condition number of the overlap matrix is 2.9977810816E-04.
    Using symmetric orthogonalization.

  ==> Pre-Iterations <==

  SCF Guess: Superposition of Atomic Densities via on-the-fly atomic UHF (no occupation information).

   -------------------------
    Irrep   Nso     Nmo    
   -------------------------
     A         82      82 
   -------------------------
    Total      82      82
   -------------------------

  ==> Iterations <==

                           Total Energy        Delta E     RMS |[F,P]|

   @DF-RHF iter SAD:   -75.40236281814451   -7.54024e+01   0.00000e+00 
   @DF-RHF iter   1:   -75.94509333756173   -5.42731e-01   5.50835e-03 DIIS/ADIIS
   @DF-RHF iter   2:   -75.99627758615094   -5.11842e-02   3.73016e-03 DIIS/ADIIS
   @DF-RHF iter   3:   -76.02936931468801   -3.30917e-02   2.79161e-04 DIIS/ADIIS
   @DF-RHF iter   4:   -76.02984032467603   -4.71010e-04   6.67491e-05 DIIS
   @DF-RHF iter   5:   -76.02987292102810   -3.25964e-05   1.62932e-05 DIIS
   @DF-RHF iter   6:   -76.02987599511115   -3.07408e-06   3.49655e-06 DIIS
   @DF-RHF iter   7:   -76.02987615004281   -1.54932e-07   6.42263e-07 DIIS
  Energy and wave function converged.


  ==> Post-Iterations <==

    Orbital Energies [Eh]
    ---------------------

    Doubly Occupied:                                                      

       1A    -20.575765     2A     -1.325838     3A     -0.721192  
       4A     -0.548246     5A     -0.500692  

    Virtual:                                                              

       6A      0.032659     7A      0.053165     8A      0.055999  
       9A      0.082336    10A      0.161582    11A      0.171168  
      12A      0.181541    13A      0.197712    14A      0.213376  
      15A      0.223248    16A      0.238282    17A      0.251711  
      18A      0.310993    19A      0.328296    20A      0.371040  
      21A      0.402225    22A      0.436591    23A      0.452075  
      24A      0.459734    25A      0.492389    26A      0.518146  
      27A      0.529181    28A      0.545077    29A      0.566792  
      30A      0.614706    31A      0.645362    32A      0.660787  
      33A      0.705142    34A      0.864464    35A      0.877284  
      36A      0.927937    37A      0.939956    38A      1.120582  
      39A      1.146430    40A      1.151950    41A      1.204771  
      42A      1.239010    43A      1.282411    44A      1.334930  
      45A      1.364585    46A      1.393618    47A      1.426001  
      48A      1.460728    49A      1.537450    50A      1.572555  
      51A      1.853970    52A      1.992352    53A      2.048322  
      54A      2.055899    55A      2.085097    56A      2.276945  
      57A      2.368771    58A      2.411212    59A      2.446587  
      60A      2.468711    61A      2.527802    62A      2.580776  
      63A      2.694546    64A      2.812156    65A      2.919908  
      66A      3.423668    67A      3.692775    68A      3.700967  
      69A      3.806748    70A      3.906289    71A      4.077105  
      72A      4.144062    73A      4.184855    74A      4.910651  
      75A      4.956428    76A      4.995602    77A      5.172875  
      78A      5.483400    79A      5.655313    80A      6.416494  
      81A      6.848766    82A     33.567767  

    Final Occupation by Irrep:
              A 
    DOCC [     5 ]

  @DF-RHF Final Energy:   -76.02987615004281

   => Energetics <=

    Nuclear Repulsion Energy =              8.7723559757493383
    One-Electron Energy =                -122.2609617312026558
    Two-Electron Energy =                  37.4587296054105110
    Total Energy =                        -76.0298761500428100

Computation Completed


Properties will be evaluated at   0.000000,   0.000000,   0.000000 [a0]

Properties computed using the SCF density matrix


 Multipole Moments:

 ------------------------------------------------------------------------------------
     Multipole            Electronic (a.u.)      Nuclear  (a.u.)        Total (a.u.)
 ------------------------------------------------------------------------------------

 L = 1.  Multiply by 2.5417464519 to convert [e a0] to [Debye]
 Dipole X            :          0.0001192           -0.0000000            0.0001192
 Dipole Y            :          0.5116331           -0.5118339           -0.0002007
 Dipole Z            :        -30.5141622           31.2004617            0.6862995
 Magnitude           :                                                    0.6862995

 ------------------------------------------------------------------------------------

*** tstop() called on Lenovo-Y540-Zoha at Tue Sep 27 18:46:13 2022
Module time:
	user time   =        nan seconds =        nan minutes
	system time =        nan seconds =        nan minutes
	total time  =          1 seconds =       0.02 minutes
Total time:
	user time   =        nan seconds =        nan minutes
	system time =        nan seconds =        nan minutes
	total time  =       1192 seconds =      19.87 minutes

    Psi4 stopped on: Tuesday, 27 September 2022 06:46PM
    Psi4 wall time for execution: 0:00:01.01

