
Scratch directory: C:\Users\64292\AppData\Local\Temp/

  //>>>>>>>>>>>>>>>>>>>>>>>>>>>>>>>>>>>>>//
  // ManyBody Setup: N-Body Levels [1, 2]//
  //<<<<<<<<<<<<<<<<<<<<<<<<<<<<<<<<<<<<<//

        Number of 1-body computations:     2
        Number of 2-body computations:     1

    -----------------------------------------------------------------------
          Psi4: An Open-Source Ab Initio Electronic Structure Package
                               Psi4 1.6.1 release

                         Git: Rev {HEAD} 5b9f6e3 


    D. G. A. Smith, L. A. Burns, A. C. Simmonett, R. M. Parrish,
    M. C. Schieber, R. Galvelis, P. Kraus, H. Kruse, R. Di Remigio,
    A. Alenaizan, A. M. James, S. Lehtola, J. P. Misiewicz, M. Scheurer,
    R. A. Shaw, J. B. Schriber, Y. Xie, Z. L. Glick, D. A. Sirianni,
    J. S. O'Brien, J. M. Waldrop, A. Kumar, E. G. Hohenstein,
    B. P. Pritchard, B. R. Brooks, H. F. Schaefer III, A. Yu. Sokolov,
    K. Patkowski, A. E. DePrince III, U. Bozkaya, R. A. King,
    F. A. Evangelista, J. M. Turney, T. D. Crawford, C. D. Sherrill,
    J. Chem. Phys. 152(18) 184108 (2020). https://doi.org/10.1063/5.0006002

                            Additional Code Authors
    E. T. Seidl, C. L. Janssen, E. F. Valeev, M. L. Leininger,
    J. F. Gonthier, R. M. Richard, H. R. McAlexander, M. Saitow, X. Wang,
    P. Verma, M. H. Lechner, and A. Jiang

             Previous Authors, Complete List of Code Contributors,
                       and Citations for Specific Modules
    https://github.com/psi4/psi4/blob/master/codemeta.json
    https://github.com/psi4/psi4/graphs/contributors
    http://psicode.org/psi4manual/master/introduction.html#citing-psifour

    -----------------------------------------------------------------------


    Psi4 started on: Tuesday, 27 September 2022 06:25PM

    Process ID: 10544
    Host:       Lenovo-Y540-Zoha
    PSIDATADIR: C:\Users\64292\Anaconda3\envs\qm-tools\lib\share\psi4
    Memory:     476.8 MiB
    Threads:    1
    
  ==> Input QCSchema <==

--------------------------------------------------------------------------
{'driver': 'energy',
 'extras': {'psiapi': True, 'wfn_qcvars_only': True},
 'id': None,
 'keywords': {'function_kwargs': {}},
 'model': {'basis': 'aug-cc-pvdz', 'method': 'scf'},
 'molecule': {'atom_labels': ['1', '2', '3', '5', '6', '7'],
              'atomic_numbers': [8, 1, 1, 8, 1, 1],
              'fix_com': True,
              'fix_orientation': True,
              'fragment_charges': [0.0, 0.0],
              'fragment_multiplicities': [1, 1],
              'fragments': [[0, 1, 2], [3, 4, 5]],
              'geometry': [3.6985726236876735e-17, -0.05118338925575477, -3.021563736858451, 3.6985726236876735e-17,
                           -0.05118338925575477, -1.131837611400623, 3.6985726236876735e-17, 1.7781852282291912,
                           -3.4953519707763827, 3.6985726236876735e-17, -0.05118338925575477, 2.8365872520608164,
                           1.5807867135447509, -0.4747539125559204, 3.7814503147897307, -1.5807867135447522,
                           0.37238713404440943, 3.7814503147897303],
              'mass_numbers': [16, 1, 1, 16, 1, 1],
              'masses': [15.99491461957, 1.00782503223, 1.00782503223, 15.99491461957, 1.00782503223, 1.00782503223],
              'molecular_charge': 0.0,
              'molecular_multiplicity': 1,
              'name': 'H4O2',
              'provenance': {'creator': 'QCElemental',
                             'routine': 'qcelemental.molparse.from_string',
                             'version': 'v0.25.0'},
              'real': [False, False, False, True, True, True],
              'schema_name': 'qcschema_molecule',
              'schema_version': 2,
              'symbols': ['O', 'H', 'H', 'O', 'H', 'H'],
              'validated': True},
 'protocols': {'stdout': True},
 'provenance': {'creator': 'QCElemental', 'routine': 'qcelemental.models.results', 'version': 'v0.25.0'},
 'schema_name': 'qcschema_input',
 'schema_version': 1}
--------------------------------------------------------------------------

Scratch directory: C:\Users\64292\AppData\Local\Temp/

*** tstart() called on Lenovo-Y540-Zoha
*** at Tue Sep 27 18:44:29 2022

   => Loading Basis Set <=

    Name: AUG-CC-PVDZ
    Role: ORBITAL
    Keyword: BASIS
    atoms 1, 4     entry O          line   254 file C:\Users\64292\Anaconda3\envs\qm-tools\lib\share\psi4\basis\aug-cc-pvdz.gbs 
    atoms 2-3, 5-6 entry H          line    40 file C:\Users\64292\Anaconda3\envs\qm-tools\lib\share\psi4\basis\aug-cc-pvdz.gbs 


         ---------------------------------------------------------
                                   SCF
               by Justin Turney, Rob Parrish, Andy Simmonett
                          and Daniel G. A. Smith
                              RHF Reference
                        1 Threads,    476 MiB Core
         ---------------------------------------------------------

  ==> Geometry <==

    Molecular point group: c1
    Full point group: C1

    Geometry (in Bohr), charge = 0, multiplicity = 1:

       Center              X                  Y                   Z               Mass       
    ------------   -----------------  -----------------  -----------------  -----------------
      Gh(O)           0.000000000000    -0.051183389256    -3.021563736858    15.994914619570
      Gh(H)           0.000000000000    -0.051183389256    -1.131837611401     1.007825032230
      Gh(H)           0.000000000000     1.778185228229    -3.495351970776     1.007825032230
         O            0.000000000000    -0.051183389256     2.836587252061    15.994914619570
         H            1.580786713545    -0.474753912556     3.781450314790     1.007825032230
         H           -1.580786713545     0.372387134044     3.781450314790     1.007825032230

  Running in c1 symmetry.

  Rotational constants: A =      7.04542  B =      0.18812  C =      0.18631 [cm^-1]
  Rotational constants: A = 211216.36404  B =   5639.63518  C =   5585.49509 [MHz]
  Nuclear repulsion =    8.772355975749340

  Charge       = 0
  Multiplicity = 1
  Electrons    = 10
  Nalpha       = 5
  Nbeta        = 5

  ==> Algorithm <==

  SCF Algorithm Type is DF.
  DIIS enabled.
  MOM disabled.
  Fractional occupation disabled.
  Guess Type is SAD.
  Energy threshold   = 1.00e-06
  Density threshold  = 1.00e-06
  Integral threshold = 1.00e-12

  ==> Primary Basis <==

  Basis Set: AUG-CC-PVDZ
    Blend: AUG-CC-PVDZ
    Number of shells: 38
    Number of basis functions: 82
    Number of Cartesian functions: 86
    Spherical Harmonics?: true
    Max angular momentum: 2

   => Loading Basis Set <=

    Name: (AUG-CC-PVDZ AUX)
    Role: JKFIT
    Keyword: DF_BASIS_SCF
    atoms 1, 4     entry O          line   270 file C:\Users\64292\Anaconda3\envs\qm-tools\lib\share\psi4\basis\aug-cc-pvdz-jkfit.gbs 
    atoms 2-3, 5-6 entry H          line    70 file C:\Users\64292\Anaconda3\envs\qm-tools\lib\share\psi4\basis\aug-cc-pvdz-jkfit.gbs 

  ==> Integral Setup <==

  DFHelper Memory: AOs need 0.017 GiB; user supplied 0.349 GiB. Using in-core AOs.

  ==> MemDFJK: Density-Fitted J/K Matrices <==

    J tasked:                   Yes
    K tasked:                   Yes
    wK tasked:                   No
    OpenMP threads:               1
    Memory [MiB]:               357
    Algorithm:                 Core
    Schwarz Cutoff:           1E-12
    Mask sparsity (%):       0.0000
    Fitting Condition:        1E-10

   => Auxiliary Basis Set <=

  Basis Set: (AUG-CC-PVDZ AUX)
    Blend: AUG-CC-PVDZ-JKFIT
    Number of shells: 104
    Number of basis functions: 300
    Number of Cartesian functions: 342
    Spherical Harmonics?: true
    Max angular momentum: 3

  Minimum eigenvalue in the overlap matrix is 2.1205400646E-03.
  Reciprocal condition number of the overlap matrix is 2.9454557380E-04.
    Using symmetric orthogonalization.

  ==> Pre-Iterations <==

  SCF Guess: Superposition of Atomic Densities via on-the-fly atomic UHF (no occupation information).

   -------------------------
    Irrep   Nso     Nmo    
   -------------------------
     A         82      82 
   -------------------------
    Total      82      82
   -------------------------

  ==> Iterations <==

                           Total Energy        Delta E     RMS |[F,P]|

   @DF-RHF iter SAD:   -75.40236278080863   -7.54024e+01   0.00000e+00 
   @DF-RHF iter   1:   -75.94511647894566   -5.42754e-01   5.50904e-03 DIIS/ADIIS
   @DF-RHF iter   2:   -75.99630740950778   -5.11909e-02   3.73117e-03 DIIS/ADIIS
   @DF-RHF iter   3:   -76.02940156595209   -3.30942e-02   2.79123e-04 DIIS/ADIIS
   @DF-RHF iter   4:   -76.02987253226327   -4.70966e-04   6.67558e-05 DIIS
   @DF-RHF iter   5:   -76.02990513661553   -3.26044e-05   1.62949e-05 DIIS
   @DF-RHF iter   6:   -76.02990821192864   -3.07531e-06   3.49827e-06 DIIS
   @DF-RHF iter   7:   -76.02990836705528   -1.55127e-07   6.42989e-07 DIIS
  Energy and wave function converged.


  ==> Post-Iterations <==

    Orbital Energies [Eh]
    ---------------------

    Doubly Occupied:                                                      

       1A    -20.575776     2A     -1.325825     3A     -0.721172  
       4A     -0.548233     5A     -0.500664  

    Virtual:                                                              

       6A      0.032595     7A      0.054236     8A      0.055785  
       9A      0.080063    10A      0.167174    11A      0.170533  
      12A      0.181523    13A      0.197651    14A      0.211259  
      15A      0.225430    16A      0.237254    17A      0.253833  
      18A      0.315197    19A      0.326081    20A      0.372205  
      21A      0.398595    22A      0.432243    23A      0.453211  
      24A      0.462488    25A      0.505872    26A      0.525340  
      27A      0.531844    28A      0.545978    29A      0.564389  
      30A      0.612437    31A      0.653025    32A      0.658541  
      33A      0.703275    34A      0.854745    35A      0.880376  
      36A      0.936872    37A      0.950297    38A      1.130728  
      39A      1.146530    40A      1.177758    41A      1.201799  
      42A      1.237093    43A      1.281857    44A      1.335296  
      45A      1.377621    46A      1.396365    47A      1.429641  
      48A      1.475491    49A      1.555481    50A      1.572922  
      51A      1.830674    52A      1.991229    53A      2.050995  
      54A      2.055018    55A      2.121209    56A      2.288899  
      57A      2.364544    58A      2.406744    59A      2.460678  
      60A      2.478161    61A      2.532837    62A      2.599768  
      63A      2.726449    64A      2.808707    65A      2.928051  
      66A      3.425244    67A      3.700881    68A      3.710786  
      69A      3.828676    70A      3.906556    71A      4.080913  
      72A      4.145681    73A      4.186403    74A      4.912509  
      75A      4.958152    76A      5.001786    77A      5.170983  
      78A      5.485232    79A      5.680858    80A      6.437142  
      81A      6.866516    82A     33.569434  

    Final Occupation by Irrep:
              A 
    DOCC [     5 ]

  @DF-RHF Final Energy:   -76.02990836705528

   => Energetics <=

    Nuclear Repulsion Energy =              8.7723559757493401
    One-Electron Energy =                -122.2611518288121744
    Two-Electron Energy =                  37.4588874860075549
    Total Energy =                        -76.0299083670552847

Computation Completed


Properties will be evaluated at   0.000000,   0.000000,   0.000000 [a0]

Properties computed using the SCF density matrix


 Multipole Moments:

 ------------------------------------------------------------------------------------
     Multipole            Electronic (a.u.)      Nuclear  (a.u.)        Total (a.u.)
 ------------------------------------------------------------------------------------

 L = 1.  Multiply by 2.5417464519 to convert [e a0] to [Debye]
 Dipole X            :         -0.0000526           -0.0000000           -0.0000526
 Dipole Y            :          0.5115954           -0.5118339           -0.0002385
 Dipole Z            :        -29.5698945           30.2555986            0.6857042
 Magnitude           :                                                    0.6857042

 ------------------------------------------------------------------------------------

*** tstop() called on Lenovo-Y540-Zoha at Tue Sep 27 18:44:30 2022
Module time:
	user time   =        nan seconds =        nan minutes
	system time =        nan seconds =        nan minutes
	total time  =          1 seconds =       0.02 minutes
Total time:
	user time   =        nan seconds =        nan minutes
	system time =        nan seconds =        nan minutes
	total time  =       1089 seconds =      18.15 minutes

    Psi4 stopped on: Tuesday, 27 September 2022 06:44PM
    Psi4 wall time for execution: 0:00:01.01


    -----------------------------------------------------------------------
          Psi4: An Open-Source Ab Initio Electronic Structure Package
                               Psi4 1.6.1 release

                         Git: Rev {HEAD} 5b9f6e3 


    D. G. A. Smith, L. A. Burns, A. C. Simmonett, R. M. Parrish,
    M. C. Schieber, R. Galvelis, P. Kraus, H. Kruse, R. Di Remigio,
    A. Alenaizan, A. M. James, S. Lehtola, J. P. Misiewicz, M. Scheurer,
    R. A. Shaw, J. B. Schriber, Y. Xie, Z. L. Glick, D. A. Sirianni,
    J. S. O'Brien, J. M. Waldrop, A. Kumar, E. G. Hohenstein,
    B. P. Pritchard, B. R. Brooks, H. F. Schaefer III, A. Yu. Sokolov,
    K. Patkowski, A. E. DePrince III, U. Bozkaya, R. A. King,
    F. A. Evangelista, J. M. Turney, T. D. Crawford, C. D. Sherrill,
    J. Chem. Phys. 152(18) 184108 (2020). https://doi.org/10.1063/5.0006002

                            Additional Code Authors
    E. T. Seidl, C. L. Janssen, E. F. Valeev, M. L. Leininger,
    J. F. Gonthier, R. M. Richard, H. R. McAlexander, M. Saitow, X. Wang,
    P. Verma, M. H. Lechner, and A. Jiang

             Previous Authors, Complete List of Code Contributors,
                       and Citations for Specific Modules
    https://github.com/psi4/psi4/blob/master/codemeta.json
    https://github.com/psi4/psi4/graphs/contributors
    http://psicode.org/psi4manual/master/introduction.html#citing-psifour

    -----------------------------------------------------------------------


    Psi4 started on: Tuesday, 27 September 2022 06:25PM

    Process ID: 10544
    Host:       Lenovo-Y540-Zoha
    PSIDATADIR: C:\Users\64292\Anaconda3\envs\qm-tools\lib\share\psi4
    Memory:     476.8 MiB
    Threads:    1
    
  ==> Input QCSchema <==

--------------------------------------------------------------------------
{'driver': 'energy',
 'extras': {'psiapi': True, 'wfn_qcvars_only': True},
 'id': None,
 'keywords': {'function_kwargs': {}},
 'model': {'basis': 'aug-cc-pvdz', 'method': 'scf'},
 'molecule': {'atom_labels': ['1', '2', '3', '5', '6', '7'],
              'atomic_numbers': [8, 1, 1, 8, 1, 1],
              'fix_com': True,
              'fix_orientation': True,
              'fragment_charges': [0.0, 0.0],
              'fragment_multiplicities': [1, 1],
              'fragments': [[0, 1, 2], [3, 4, 5]],
              'geometry': [3.6985726236876735e-17, -0.05118338925575477, -3.021563736858451, 3.6985726236876735e-17,
                           -0.05118338925575477, -1.131837611400623, 3.6985726236876735e-17, 1.7781852282291912,
                           -3.4953519707763827, 3.6985726236876735e-17, -0.05118338925575477, 2.8365872520608164,
                           1.5807867135447509, -0.4747539125559204, 3.7814503147897307, -1.5807867135447522,
                           0.37238713404440943, 3.7814503147897303],
              'mass_numbers': [16, 1, 1, 16, 1, 1],
              'masses': [15.99491461957, 1.00782503223, 1.00782503223, 15.99491461957, 1.00782503223, 1.00782503223],
              'molecular_charge': 0.0,
              'molecular_multiplicity': 1,
              'name': 'H4O2',
              'provenance': {'creator': 'QCElemental',
                             'routine': 'qcelemental.molparse.from_string',
                             'version': 'v0.25.0'},
              'real': [True, True, True, False, False, False],
              'schema_name': 'qcschema_molecule',
              'schema_version': 2,
              'symbols': ['O', 'H', 'H', 'O', 'H', 'H'],
              'validated': True},
 'protocols': {'stdout': True},
 'provenance': {'creator': 'QCElemental', 'routine': 'qcelemental.models.results', 'version': 'v0.25.0'},
 'schema_name': 'qcschema_input',
 'schema_version': 1}
--------------------------------------------------------------------------

Scratch directory: C:\Users\64292\AppData\Local\Temp/

*** tstart() called on Lenovo-Y540-Zoha
*** at Tue Sep 27 18:44:30 2022

   => Loading Basis Set <=

    Name: AUG-CC-PVDZ
    Role: ORBITAL
    Keyword: BASIS
    atoms 1, 4     entry O          line   254 file C:\Users\64292\Anaconda3\envs\qm-tools\lib\share\psi4\basis\aug-cc-pvdz.gbs 
    atoms 2-3, 5-6 entry H          line    40 file C:\Users\64292\Anaconda3\envs\qm-tools\lib\share\psi4\basis\aug-cc-pvdz.gbs 


         ---------------------------------------------------------
                                   SCF
               by Justin Turney, Rob Parrish, Andy Simmonett
                          and Daniel G. A. Smith
                              RHF Reference
                        1 Threads,    476 MiB Core
         ---------------------------------------------------------

  ==> Geometry <==

    Molecular point group: c1
    Full point group: C1

    Geometry (in Bohr), charge = 0, multiplicity = 1:

       Center              X                  Y                   Z               Mass       
    ------------   -----------------  -----------------  -----------------  -----------------
         O            0.000000000000    -0.051183389256    -3.021563736858    15.994914619570
         H            0.000000000000    -0.051183389256    -1.131837611401     1.007825032230
         H            0.000000000000     1.778185228229    -3.495351970776     1.007825032230
      Gh(O)           0.000000000000    -0.051183389256     2.836587252061    15.994914619570
      Gh(H)           1.580786713545    -0.474753912556     3.781450314790     1.007825032230
      Gh(H)          -1.580786713545     0.372387134044     3.781450314790     1.007825032230

  Running in c1 symmetry.

  Rotational constants: A =      7.04542  B =      0.18812  C =      0.18631 [cm^-1]
  Rotational constants: A = 211216.36404  B =   5639.63518  C =   5585.49509 [MHz]
  Nuclear repulsion =    8.801420354575150

  Charge       = 0
  Multiplicity = 1
  Electrons    = 10
  Nalpha       = 5
  Nbeta        = 5

  ==> Algorithm <==

  SCF Algorithm Type is DF.
  DIIS enabled.
  MOM disabled.
  Fractional occupation disabled.
  Guess Type is SAD.
  Energy threshold   = 1.00e-06
  Density threshold  = 1.00e-06
  Integral threshold = 1.00e-12

  ==> Primary Basis <==

  Basis Set: AUG-CC-PVDZ
    Blend: AUG-CC-PVDZ
    Number of shells: 38
    Number of basis functions: 82
    Number of Cartesian functions: 86
    Spherical Harmonics?: true
    Max angular momentum: 2

   => Loading Basis Set <=

    Name: (AUG-CC-PVDZ AUX)
    Role: JKFIT
    Keyword: DF_BASIS_SCF
    atoms 1, 4     entry O          line   270 file C:\Users\64292\Anaconda3\envs\qm-tools\lib\share\psi4\basis\aug-cc-pvdz-jkfit.gbs 
    atoms 2-3, 5-6 entry H          line    70 file C:\Users\64292\Anaconda3\envs\qm-tools\lib\share\psi4\basis\aug-cc-pvdz-jkfit.gbs 

  ==> Integral Setup <==

  DFHelper Memory: AOs need 0.017 GiB; user supplied 0.349 GiB. Using in-core AOs.

  ==> MemDFJK: Density-Fitted J/K Matrices <==

    J tasked:                   Yes
    K tasked:                   Yes
    wK tasked:                   No
    OpenMP threads:               1
    Memory [MiB]:               357
    Algorithm:                 Core
    Schwarz Cutoff:           1E-12
    Mask sparsity (%):       0.0000
    Fitting Condition:        1E-10

   => Auxiliary Basis Set <=

  Basis Set: (AUG-CC-PVDZ AUX)
    Blend: AUG-CC-PVDZ-JKFIT
    Number of shells: 104
    Number of basis functions: 300
    Number of Cartesian functions: 342
    Spherical Harmonics?: true
    Max angular momentum: 3

  Minimum eigenvalue in the overlap matrix is 2.1205400646E-03.
  Reciprocal condition number of the overlap matrix is 2.9454557380E-04.
    Using symmetric orthogonalization.

  ==> Pre-Iterations <==

  SCF Guess: Superposition of Atomic Densities via on-the-fly atomic UHF (no occupation information).

   -------------------------
    Irrep   Nso     Nmo    
   -------------------------
     A         82      82 
   -------------------------
    Total      82      82
   -------------------------

  ==> Iterations <==

                           Total Energy        Delta E     RMS |[F,P]|

   @DF-RHF iter SAD:   -75.41487091421642   -7.54149e+01   0.00000e+00 
   @DF-RHF iter   1:   -75.94941795536270   -5.34547e-01   5.50578e-03 DIIS/ADIIS
   @DF-RHF iter   2:   -76.00129814365907   -5.18802e-02   3.77554e-03 DIIS/ADIIS
   @DF-RHF iter   3:   -76.03525443201580   -3.39563e-02   2.81135e-04 DIIS/ADIIS
   @DF-RHF iter   4:   -76.03570792581250   -4.53494e-04   6.60362e-05 DIIS
   @DF-RHF iter   5:   -76.03573808874908   -3.01629e-05   1.56347e-05 DIIS
   @DF-RHF iter   6:   -76.03574066203095   -2.57328e-06   3.09422e-06 DIIS
   @DF-RHF iter   7:   -76.03574076555842   -1.03527e-07   5.05231e-07 DIIS
  Energy and wave function converged.


  ==> Post-Iterations <==

    Orbital Energies [Eh]
    ---------------------

    Doubly Occupied:                                                      

       1A    -20.584245     2A     -1.335635     3A     -0.696491  
       4A     -0.577364     5A     -0.506071  

    Virtual:                                                              

       6A      0.024771     7A      0.050140     8A      0.057951  
       9A      0.078496    10A      0.134064    11A      0.150285  
      12A      0.184639    13A      0.189754    14A      0.219742  
      15A      0.225670    16A      0.227967    17A      0.268133  
      18A      0.326741    19A      0.360064    20A      0.369752  
      21A      0.383323    22A      0.401015    23A      0.416079  
      24A      0.421677    25A      0.468985    26A      0.486410  
      27A      0.498371    28A      0.525959    29A      0.541126  
      30A      0.567474    31A      0.610375    32A      0.648320  
      33A      0.738583    34A      0.840026    35A      0.909801  
      36A      0.963387    37A      1.049958    38A      1.107233  
      39A      1.149372    40A      1.172175    41A      1.188490  
      42A      1.200277    43A      1.278596    44A      1.299309  
      45A      1.303420    46A      1.332351    47A      1.364420  
      48A      1.430235    49A      1.493495    50A      1.566900  
      51A      1.718579    52A      1.985599    53A      1.993141  
      54A      2.063851    55A      2.080568    56A      2.345508  
      57A      2.373338    58A      2.380238    59A      2.396048  
      60A      2.425095    61A      2.438585    62A      2.580638  
      63A      2.715797    64A      2.906433    65A      2.986183  
      66A      3.405644    67A      3.675878    68A      3.703278  
      69A      3.729975    70A      3.934347    71A      3.956345  
      72A      4.042533    73A      4.272732    74A      4.902904  
      75A      4.938815    76A      5.051629    77A      5.324427  
      78A      5.341656    79A      5.589349    80A      6.336019  
      81A      6.809415    82A     33.527686  

    Final Occupation by Irrep:
              A 
    DOCC [     5 ]

  @DF-RHF Final Energy:   -76.03574076555842

   => Energetics <=

    Nuclear Repulsion Energy =              8.8014203545751499
    One-Electron Energy =                -122.2746867675240168
    Two-Electron Energy =                  37.4375256473904656
    Total Energy =                        -76.0357407655584154

Computation Completed


Properties will be evaluated at   0.000000,   0.000000,   0.000000 [a0]

Properties computed using the SCF density matrix


 Multipole Moments:

 ------------------------------------------------------------------------------------
     Multipole            Electronic (a.u.)      Nuclear  (a.u.)        Total (a.u.)
 ------------------------------------------------------------------------------------

 L = 1.  Multiply by 2.5417464519 to convert [e a0] to [Debye]
 Dipole X            :         -0.0000521            0.0000000           -0.0000521
 Dipole Y            :         -0.6854774            1.3175347            0.6320573
 Dipole Z            :         29.2887096          -28.7996995            0.4890101
 Magnitude           :                                                    0.7991417

 ------------------------------------------------------------------------------------

*** tstop() called on Lenovo-Y540-Zoha at Tue Sep 27 18:44:31 2022
Module time:
	user time   =        nan seconds =        nan minutes
	system time =        nan seconds =        nan minutes
	total time  =          1 seconds =       0.02 minutes
Total time:
	user time   =        nan seconds =        nan minutes
	system time =        nan seconds =        nan minutes
	total time  =       1090 seconds =      18.17 minutes

    Psi4 stopped on: Tuesday, 27 September 2022 06:44PM
    Psi4 wall time for execution: 0:00:00.99


    -----------------------------------------------------------------------
          Psi4: An Open-Source Ab Initio Electronic Structure Package
                               Psi4 1.6.1 release

                         Git: Rev {HEAD} 5b9f6e3 


    D. G. A. Smith, L. A. Burns, A. C. Simmonett, R. M. Parrish,
    M. C. Schieber, R. Galvelis, P. Kraus, H. Kruse, R. Di Remigio,
    A. Alenaizan, A. M. James, S. Lehtola, J. P. Misiewicz, M. Scheurer,
    R. A. Shaw, J. B. Schriber, Y. Xie, Z. L. Glick, D. A. Sirianni,
    J. S. O'Brien, J. M. Waldrop, A. Kumar, E. G. Hohenstein,
    B. P. Pritchard, B. R. Brooks, H. F. Schaefer III, A. Yu. Sokolov,
    K. Patkowski, A. E. DePrince III, U. Bozkaya, R. A. King,
    F. A. Evangelista, J. M. Turney, T. D. Crawford, C. D. Sherrill,
    J. Chem. Phys. 152(18) 184108 (2020). https://doi.org/10.1063/5.0006002

                            Additional Code Authors
    E. T. Seidl, C. L. Janssen, E. F. Valeev, M. L. Leininger,
    J. F. Gonthier, R. M. Richard, H. R. McAlexander, M. Saitow, X. Wang,
    P. Verma, M. H. Lechner, and A. Jiang

             Previous Authors, Complete List of Code Contributors,
                       and Citations for Specific Modules
    https://github.com/psi4/psi4/blob/master/codemeta.json
    https://github.com/psi4/psi4/graphs/contributors
    http://psicode.org/psi4manual/master/introduction.html#citing-psifour

    -----------------------------------------------------------------------


    Psi4 started on: Tuesday, 27 September 2022 06:25PM

    Process ID: 10544
    Host:       Lenovo-Y540-Zoha
    PSIDATADIR: C:\Users\64292\Anaconda3\envs\qm-tools\lib\share\psi4
    Memory:     476.8 MiB
    Threads:    1
    
  ==> Input QCSchema <==

--------------------------------------------------------------------------
{'driver': 'energy',
 'extras': {'psiapi': True, 'wfn_qcvars_only': True},
 'id': None,
 'keywords': {'function_kwargs': {}},
 'model': {'basis': 'aug-cc-pvdz', 'method': 'scf'},
 'molecule': {'atom_labels': ['1', '2', '3', '5', '6', '7'],
              'atomic_numbers': [8, 1, 1, 8, 1, 1],
              'fix_com': True,
              'fix_orientation': True,
              'fragment_charges': [0.0, 0.0],
              'fragment_multiplicities': [1, 1],
              'fragments': [[0, 1, 2], [3, 4, 5]],
              'geometry': [3.6985726236876735e-17, -0.05118338925575477, -3.021563736858451, 3.6985726236876735e-17,
                           -0.05118338925575477, -1.131837611400623, 3.6985726236876735e-17, 1.7781852282291912,
                           -3.4953519707763827, 3.6985726236876735e-17, -0.05118338925575477, 2.8365872520608164,
                           1.5807867135447509, -0.4747539125559204, 3.7814503147897307, -1.5807867135447522,
                           0.37238713404440943, 3.7814503147897303],
              'mass_numbers': [16, 1, 1, 16, 1, 1],
              'masses': [15.99491461957, 1.00782503223, 1.00782503223, 15.99491461957, 1.00782503223, 1.00782503223],
              'molecular_charge': 0.0,
              'molecular_multiplicity': 1,
              'name': 'H4O2',
              'provenance': {'creator': 'QCElemental',
                             'routine': 'qcelemental.molparse.from_string',
                             'version': 'v0.25.0'},
              'real': [True, True, True, True, True, True],
              'schema_name': 'qcschema_molecule',
              'schema_version': 2,
              'symbols': ['O', 'H', 'H', 'O', 'H', 'H'],
              'validated': True},
 'protocols': {'stdout': True},
 'provenance': {'creator': 'QCElemental', 'routine': 'qcelemental.models.results', 'version': 'v0.25.0'},
 'schema_name': 'qcschema_input',
 'schema_version': 1}
--------------------------------------------------------------------------

Scratch directory: C:\Users\64292\AppData\Local\Temp/

*** tstart() called on Lenovo-Y540-Zoha
*** at Tue Sep 27 18:44:31 2022

   => Loading Basis Set <=

    Name: AUG-CC-PVDZ
    Role: ORBITAL
    Keyword: BASIS
    atoms 1, 4     entry O          line   254 file C:\Users\64292\Anaconda3\envs\qm-tools\lib\share\psi4\basis\aug-cc-pvdz.gbs 
    atoms 2-3, 5-6 entry H          line    40 file C:\Users\64292\Anaconda3\envs\qm-tools\lib\share\psi4\basis\aug-cc-pvdz.gbs 


         ---------------------------------------------------------
                                   SCF
               by Justin Turney, Rob Parrish, Andy Simmonett
                          and Daniel G. A. Smith
                              RHF Reference
                        1 Threads,    476 MiB Core
         ---------------------------------------------------------

  ==> Geometry <==

    Molecular point group: c1
    Full point group: C1

    Geometry (in Bohr), charge = 0, multiplicity = 1:

       Center              X                  Y                   Z               Mass       
    ------------   -----------------  -----------------  -----------------  -----------------
         O            0.000000000000    -0.051183389256    -3.021563736858    15.994914619570
         H            0.000000000000    -0.051183389256    -1.131837611401     1.007825032230
         H            0.000000000000     1.778185228229    -3.495351970776     1.007825032230
         O            0.000000000000    -0.051183389256     2.836587252061    15.994914619570
         H            1.580786713545    -0.474753912556     3.781450314790     1.007825032230
         H           -1.580786713545     0.372387134044     3.781450314790     1.007825032230

  Running in c1 symmetry.

  Rotational constants: A =      7.04542  B =      0.18812  C =      0.18631 [cm^-1]
  Rotational constants: A = 211216.36404  B =   5639.63518  C =   5585.49509 [MHz]
  Nuclear repulsion =   34.661791844666226

  Charge       = 0
  Multiplicity = 1
  Electrons    = 20
  Nalpha       = 10
  Nbeta        = 10

  ==> Algorithm <==

  SCF Algorithm Type is DF.
  DIIS enabled.
  MOM disabled.
  Fractional occupation disabled.
  Guess Type is SAD.
  Energy threshold   = 1.00e-06
  Density threshold  = 1.00e-06
  Integral threshold = 1.00e-12

  ==> Primary Basis <==

  Basis Set: AUG-CC-PVDZ
    Blend: AUG-CC-PVDZ
    Number of shells: 38
    Number of basis functions: 82
    Number of Cartesian functions: 86
    Spherical Harmonics?: true
    Max angular momentum: 2

   => Loading Basis Set <=

    Name: (AUG-CC-PVDZ AUX)
    Role: JKFIT
    Keyword: DF_BASIS_SCF
    atoms 1, 4     entry O          line   270 file C:\Users\64292\Anaconda3\envs\qm-tools\lib\share\psi4\basis\aug-cc-pvdz-jkfit.gbs 
    atoms 2-3, 5-6 entry H          line    70 file C:\Users\64292\Anaconda3\envs\qm-tools\lib\share\psi4\basis\aug-cc-pvdz-jkfit.gbs 

  ==> Integral Setup <==

  DFHelper Memory: AOs need 0.017 GiB; user supplied 0.349 GiB. Using in-core AOs.

  ==> MemDFJK: Density-Fitted J/K Matrices <==

    J tasked:                   Yes
    K tasked:                   Yes
    wK tasked:                   No
    OpenMP threads:               1
    Memory [MiB]:               357
    Algorithm:                 Core
    Schwarz Cutoff:           1E-12
    Mask sparsity (%):       0.0000
    Fitting Condition:        1E-10

   => Auxiliary Basis Set <=

  Basis Set: (AUG-CC-PVDZ AUX)
    Blend: AUG-CC-PVDZ-JKFIT
    Number of shells: 104
    Number of basis functions: 300
    Number of Cartesian functions: 342
    Spherical Harmonics?: true
    Max angular momentum: 3

  Minimum eigenvalue in the overlap matrix is 2.1205400646E-03.
  Reciprocal condition number of the overlap matrix is 2.9454557380E-04.
    Using symmetric orthogonalization.

  ==> Pre-Iterations <==

  SCF Guess: Superposition of Atomic Densities via on-the-fly atomic UHF (no occupation information).

   -------------------------
    Irrep   Nso     Nmo    
   -------------------------
     A         82      82 
   -------------------------
    Total      82      82
   -------------------------

  ==> Iterations <==

                           Total Energy        Delta E     RMS |[F,P]|

   @DF-RHF iter SAD:  -150.87274297071568   -1.50873e+02   0.00000e+00 
   @DF-RHF iter   1:  -151.91231264213803   -1.03957e+00   7.54333e-03 DIIS/ADIIS
   @DF-RHF iter   2:  -152.01230765250625   -9.99950e-02   4.97991e-03 DIIS/ADIIS
   @DF-RHF iter   3:  -152.07102299606893   -5.87153e-02   4.10281e-04 DIIS/ADIIS
   @DF-RHF iter   4:  -152.07198119584362   -9.58200e-04   9.01741e-05 DIIS
   @DF-RHF iter   5:  -152.07203740335768   -5.62075e-05   2.77958e-05 DIIS
   @DF-RHF iter   6:  -152.07204282301186   -5.41965e-06   1.26689e-05 DIIS
   @DF-RHF iter   7:  -152.07204362844683   -8.05435e-07   2.57331e-06 DIIS
   @DF-RHF iter   8:  -152.07204369689649   -6.84497e-08   4.57174e-07 DIIS
  Energy and wave function converged.


  ==> Post-Iterations <==

    Orbital Energies [Eh]
    ---------------------

    Doubly Occupied:                                                      

       1A    -20.599061     2A    -20.553211     3A     -1.350912  
       4A     -1.306712     5A     -0.744697     6A     -0.672215  
       7A     -0.581433     8A     -0.543088     9A     -0.525231  
      10A     -0.477507  

    Virtual:                                                              

      11A      0.026048    12A      0.051073    13A      0.056339  
      14A      0.088251    15A      0.174903    16A      0.183312  
      17A      0.202977    18A      0.211342    19A      0.223713  
      20A      0.236651    21A      0.246555    22A      0.282127  
      23A      0.301257    24A      0.311774    25A      0.343565  
      26A      0.359515    27A      0.398138    28A      0.424376  
      29A      0.442106    30A      0.494446    31A      0.511949  
      32A      0.530579    33A      0.541473    34A      0.590210  
      35A      0.629254    36A      0.643949    37A      0.666847  
      38A      0.775526    39A      0.832025    40A      0.860264  
      41A      0.923596    42A      0.994541    43A      1.108305  
      44A      1.124531    45A      1.136242    46A      1.186046  
      47A      1.199379    48A      1.214585    49A      1.353685  
      50A      1.423252    51A      1.460574    52A      1.497589  
      53A      1.523643    54A      1.603629    55A      1.625520  
      56A      1.945958    57A      1.965458    58A      2.018540  
      59A      2.029823    60A      2.033064    61A      2.039960  
      62A      2.129847    63A      2.349008    64A      2.403421  
      65A      2.429419    66A      2.482400    67A      2.510257  
      68A      2.698878    69A      2.764921    70A      2.771936  
      71A      2.963564    72A      3.017594    73A      3.674877  
      74A      3.677045    75A      3.703856    76A      3.739271  
      77A      3.764264    78A      3.777648    79A      4.077435  
      80A      4.123287    81A      4.165430    82A      4.334460  

    Final Occupation by Irrep:
              A 
    DOCC [    10 ]

  @DF-RHF Final Energy:  -152.07204369689649

   => Energetics <=

    Nuclear Repulsion Energy =             34.6617918446662259
    One-Electron Energy =                -278.7595201931810607
    Two-Electron Energy =                  92.0256846516183487
    Total Energy =                       -152.0720436968964862

Computation Completed


Properties will be evaluated at   0.000000,   0.000000,   0.000000 [a0]

Properties computed using the SCF density matrix


 Multipole Moments:

 ------------------------------------------------------------------------------------
     Multipole            Electronic (a.u.)      Nuclear  (a.u.)        Total (a.u.)
 ------------------------------------------------------------------------------------

 L = 1.  Multiply by 2.5417464519 to convert [e a0] to [Debye]
 Dipole X            :          0.0006766           -0.0000000            0.0006766
 Dipole Y            :         -0.1958002            0.8057008            0.6099006
 Dipole Z            :         -0.0705427            1.4558992            1.3853565
 Magnitude           :                                                    1.5136683

 ------------------------------------------------------------------------------------

*** tstop() called on Lenovo-Y540-Zoha at Tue Sep 27 18:44:32 2022
Module time:
	user time   =        nan seconds =        nan minutes
	system time =        nan seconds =        nan minutes
	total time  =          1 seconds =       0.02 minutes
Total time:
	user time   =        nan seconds =        nan minutes
	system time =        nan seconds =        nan minutes
	total time  =       1091 seconds =      18.18 minutes

    Psi4 stopped on: Tuesday, 27 September 2022 06:44PM
    Psi4 wall time for execution: 0:00:01.08


  //>>>>>>>>>>>>>>>>>>>>>>>>>>>>>>>>>>>//
  //          ManyBody Results         //
  //<<<<<<<<<<<<<<<<<<<<<<<<<<<<<<<<<<<//


   ==> N-Body: Counterpoise Corrected (CP) energies <==

        n-Body     Total Energy            Interaction Energy                          N-body Contribution to Interaction Energy
                   [Eh]                    [Eh]                  [kcal/mol]            [Eh]                  [kcal/mol]
             1  N/A                         0.000000000000        0.000000000000        0.000000000000        0.000000000000
  FULL/RTN   2  N/A                        -0.006394564283       -4.012649668119       -0.006394564283       -4.012649668119

