
Scratch directory: C:\Users\64292\AppData\Local\Temp/

  //>>>>>>>>>>>>>>>>>>>>>>>>>>>>>>>>>>>>>//
  // ManyBody Setup: N-Body Levels [1, 2]//
  //<<<<<<<<<<<<<<<<<<<<<<<<<<<<<<<<<<<<<//

        Number of 1-body computations:     2
        Number of 2-body computations:     1

    -----------------------------------------------------------------------
          Psi4: An Open-Source Ab Initio Electronic Structure Package
                               Psi4 1.6.1 release

                         Git: Rev {HEAD} 5b9f6e3 


    D. G. A. Smith, L. A. Burns, A. C. Simmonett, R. M. Parrish,
    M. C. Schieber, R. Galvelis, P. Kraus, H. Kruse, R. Di Remigio,
    A. Alenaizan, A. M. James, S. Lehtola, J. P. Misiewicz, M. Scheurer,
    R. A. Shaw, J. B. Schriber, Y. Xie, Z. L. Glick, D. A. Sirianni,
    J. S. O'Brien, J. M. Waldrop, A. Kumar, E. G. Hohenstein,
    B. P. Pritchard, B. R. Brooks, H. F. Schaefer III, A. Yu. Sokolov,
    K. Patkowski, A. E. DePrince III, U. Bozkaya, R. A. King,
    F. A. Evangelista, J. M. Turney, T. D. Crawford, C. D. Sherrill,
    J. Chem. Phys. 152(18) 184108 (2020). https://doi.org/10.1063/5.0006002

                            Additional Code Authors
    E. T. Seidl, C. L. Janssen, E. F. Valeev, M. L. Leininger,
    J. F. Gonthier, R. M. Richard, H. R. McAlexander, M. Saitow, X. Wang,
    P. Verma, M. H. Lechner, and A. Jiang

             Previous Authors, Complete List of Code Contributors,
                       and Citations for Specific Modules
    https://github.com/psi4/psi4/blob/master/codemeta.json
    https://github.com/psi4/psi4/graphs/contributors
    http://psicode.org/psi4manual/master/introduction.html#citing-psifour

    -----------------------------------------------------------------------


    Psi4 started on: Tuesday, 27 September 2022 06:25PM

    Process ID: 10544
    Host:       Lenovo-Y540-Zoha
    PSIDATADIR: C:\Users\64292\Anaconda3\envs\qm-tools\lib\share\psi4
    Memory:     476.8 MiB
    Threads:    1
    
  ==> Input QCSchema <==

--------------------------------------------------------------------------
{'driver': 'energy',
 'extras': {'psiapi': True, 'wfn_qcvars_only': True},
 'id': None,
 'keywords': {'function_kwargs': {}},
 'model': {'basis': 'aug-cc-pvdz', 'method': 'scf'},
 'molecule': {'atom_labels': ['1', '2', '3', '5', '6', '7'],
              'atomic_numbers': [8, 1, 1, 8, 1, 1],
              'fix_com': True,
              'fix_orientation': True,
              'fragment_charges': [0.0, 0.0],
              'fragment_multiplicities': [1, 1],
              'fragments': [[0, 1, 2], [3, 4, 5]],
              'geometry': [3.6985726236876735e-17, -0.05118338925575474, -3.116050043131342, 3.6985726236876735e-17,
                           -0.05118338925575474, -1.2263239176735146, 3.6985726236876735e-17, 1.7781852282291912,
                           -3.5898382770492736, 3.6985726236876735e-17, -0.05118338925575474, 2.931073558333708,
                           -1.5807867135447522, 0.37238713404440943, 3.875936621062622, 1.5807867135447509,
                           -0.4747539125559212, 3.875936621062623],
              'mass_numbers': [16, 1, 1, 16, 1, 1],
              'masses': [15.99491461957, 1.00782503223, 1.00782503223, 15.99491461957, 1.00782503223, 1.00782503223],
              'molecular_charge': 0.0,
              'molecular_multiplicity': 1,
              'name': 'H4O2',
              'provenance': {'creator': 'QCElemental',
                             'routine': 'qcelemental.molparse.from_string',
                             'version': 'v0.25.0'},
              'real': [False, False, False, True, True, True],
              'schema_name': 'qcschema_molecule',
              'schema_version': 2,
              'symbols': ['O', 'H', 'H', 'O', 'H', 'H'],
              'validated': True},
 'protocols': {'stdout': True},
 'provenance': {'creator': 'QCElemental', 'routine': 'qcelemental.models.results', 'version': 'v0.25.0'},
 'schema_name': 'qcschema_input',
 'schema_version': 1}
--------------------------------------------------------------------------

Scratch directory: C:\Users\64292\AppData\Local\Temp/

*** tstart() called on Lenovo-Y540-Zoha
*** at Tue Sep 27 18:45:14 2022

   => Loading Basis Set <=

    Name: AUG-CC-PVDZ
    Role: ORBITAL
    Keyword: BASIS
    atoms 1, 4     entry O          line   254 file C:\Users\64292\Anaconda3\envs\qm-tools\lib\share\psi4\basis\aug-cc-pvdz.gbs 
    atoms 2-3, 5-6 entry H          line    40 file C:\Users\64292\Anaconda3\envs\qm-tools\lib\share\psi4\basis\aug-cc-pvdz.gbs 


         ---------------------------------------------------------
                                   SCF
               by Justin Turney, Rob Parrish, Andy Simmonett
                          and Daniel G. A. Smith
                              RHF Reference
                        1 Threads,    476 MiB Core
         ---------------------------------------------------------

  ==> Geometry <==

    Molecular point group: c1
    Full point group: C1

    Geometry (in Bohr), charge = 0, multiplicity = 1:

       Center              X                  Y                   Z               Mass       
    ------------   -----------------  -----------------  -----------------  -----------------
      Gh(O)           0.000000000000    -0.051183389256    -3.116050043131    15.994914619570
      Gh(H)           0.000000000000    -0.051183389256    -1.226323917674     1.007825032230
      Gh(H)           0.000000000000     1.778185228229    -3.589838277049     1.007825032230
         O            0.000000000000    -0.051183389256     2.931073558334    15.994914619570
         H           -1.580786713545     0.372387134044     3.875936621063     1.007825032230
         H            1.580786713545    -0.474753912556     3.875936621063     1.007825032230

  Running in c1 symmetry.

  Rotational constants: A =      7.04439  B =      0.17687  C =      0.17527 [cm^-1]
  Rotational constants: A = 211185.36967  B =   5302.44809  C =   5254.56984 [MHz]
  Nuclear repulsion =    8.772355975749338

  Charge       = 0
  Multiplicity = 1
  Electrons    = 10
  Nalpha       = 5
  Nbeta        = 5

  ==> Algorithm <==

  SCF Algorithm Type is DF.
  DIIS enabled.
  MOM disabled.
  Fractional occupation disabled.
  Guess Type is SAD.
  Energy threshold   = 1.00e-06
  Density threshold  = 1.00e-06
  Integral threshold = 1.00e-12

  ==> Primary Basis <==

  Basis Set: AUG-CC-PVDZ
    Blend: AUG-CC-PVDZ
    Number of shells: 38
    Number of basis functions: 82
    Number of Cartesian functions: 86
    Spherical Harmonics?: true
    Max angular momentum: 2

   => Loading Basis Set <=

    Name: (AUG-CC-PVDZ AUX)
    Role: JKFIT
    Keyword: DF_BASIS_SCF
    atoms 1, 4     entry O          line   270 file C:\Users\64292\Anaconda3\envs\qm-tools\lib\share\psi4\basis\aug-cc-pvdz-jkfit.gbs 
    atoms 2-3, 5-6 entry H          line    70 file C:\Users\64292\Anaconda3\envs\qm-tools\lib\share\psi4\basis\aug-cc-pvdz-jkfit.gbs 

  ==> Integral Setup <==

  DFHelper Memory: AOs need 0.017 GiB; user supplied 0.349 GiB. Using in-core AOs.

  ==> MemDFJK: Density-Fitted J/K Matrices <==

    J tasked:                   Yes
    K tasked:                   Yes
    wK tasked:                   No
    OpenMP threads:               1
    Memory [MiB]:               357
    Algorithm:                 Core
    Schwarz Cutoff:           1E-12
    Mask sparsity (%):       0.0000
    Fitting Condition:        1E-10

   => Auxiliary Basis Set <=

  Basis Set: (AUG-CC-PVDZ AUX)
    Blend: AUG-CC-PVDZ-JKFIT
    Number of shells: 104
    Number of basis functions: 300
    Number of Cartesian functions: 342
    Spherical Harmonics?: true
    Max angular momentum: 3

  Minimum eigenvalue in the overlap matrix is 2.1722374355E-03.
  Reciprocal condition number of the overlap matrix is 3.0705770502E-04.
    Using symmetric orthogonalization.

  ==> Pre-Iterations <==

  SCF Guess: Superposition of Atomic Densities via on-the-fly atomic UHF (no occupation information).

   -------------------------
    Irrep   Nso     Nmo    
   -------------------------
     A         82      82 
   -------------------------
    Total      82      82
   -------------------------

  ==> Iterations <==

                           Total Energy        Delta E     RMS |[F,P]|

   @DF-RHF iter SAD:   -75.40236282420376   -7.54024e+01   0.00000e+00 
   @DF-RHF iter   1:   -75.94509369809067   -5.42731e-01   5.50843e-03 DIIS/ADIIS
   @DF-RHF iter   2:   -75.99627885102066   -5.11852e-02   3.73031e-03 DIIS/ADIIS
   @DF-RHF iter   3:   -76.02937072972470   -3.30919e-02   2.79147e-04 DIIS/ADIIS
   @DF-RHF iter   4:   -76.02984170888482   -4.70979e-04   6.67481e-05 DIIS
   @DF-RHF iter   5:   -76.02987430570030   -3.25968e-05   1.62936e-05 DIIS
   @DF-RHF iter   6:   -76.02987738017369   -3.07447e-06   3.49683e-06 DIIS
   @DF-RHF iter   7:   -76.02987753514249   -1.54969e-07   6.42248e-07 DIIS
  Energy and wave function converged.


  ==> Post-Iterations <==

    Orbital Energies [Eh]
    ---------------------

    Doubly Occupied:                                                      

       1A    -20.575765     2A     -1.325840     3A     -0.721188  
       4A     -0.548244     5A     -0.500691  

    Virtual:                                                              

       6A      0.032652     7A      0.053818     8A      0.055806  
       9A      0.079998    10A      0.166341    11A      0.169552  
      12A      0.181377    13A      0.197510    14A      0.210870  
      15A      0.225858    16A      0.235602    17A      0.253672  
      18A      0.312679    19A      0.327132    20A      0.372571  
      21A      0.397520    22A      0.430261    23A      0.452520  
      24A      0.459533    25A      0.503187    26A      0.521314  
      27A      0.528651    28A      0.545221    29A      0.562269  
      30A      0.607529    31A      0.651395    32A      0.656596  
      33A      0.697423    34A      0.852572    35A      0.878741  
      36A      0.928807    37A      0.945319    38A      1.126984  
      39A      1.146424    40A      1.165486    41A      1.198725  
      42A      1.241473    43A      1.279615    44A      1.333638  
      45A      1.365629    46A      1.387606    47A      1.427890  
      48A      1.465931    49A      1.541778    50A      1.567404  
      51A      1.862293    52A      1.986318    53A      2.050216  
      54A      2.054589    55A      2.085101    56A      2.270123  
      57A      2.365405    58A      2.405845    59A      2.453115  
      60A      2.471285    61A      2.527001    62A      2.577640  
      63A      2.713557    64A      2.787958    65A      2.918492  
      66A      3.422236    67A      3.699681    68A      3.701015  
      69A      3.806633    70A      3.903864    71A      4.076842  
      72A      4.144528    73A      4.182634    74A      4.911141  
      75A      4.956403    76A      4.999097    77A      5.164128  
      78A      5.481344    79A      5.669446    80A      6.415403  
      81A      6.849102    82A     33.567664  

    Final Occupation by Irrep:
              A 
    DOCC [     5 ]

  @DF-RHF Final Energy:   -76.02987753514249

   => Energetics <=

    Nuclear Repulsion Energy =              8.7723559757493383
    One-Electron Energy =                -122.2609737491308977
    Two-Electron Energy =                  37.4587402382390735
    Total Energy =                        -76.0298775351424894

Computation Completed


Properties will be evaluated at   0.000000,   0.000000,   0.000000 [a0]

Properties computed using the SCF density matrix


 Multipole Moments:

 ------------------------------------------------------------------------------------
     Multipole            Electronic (a.u.)      Nuclear  (a.u.)        Total (a.u.)
 ------------------------------------------------------------------------------------

 L = 1.  Multiply by 2.5417464519 to convert [e a0] to [Debye]
 Dipole X            :         -0.0000492           -0.0000000           -0.0000492
 Dipole Y            :          0.5116304           -0.5118339           -0.0002035
 Dipole Z            :        -30.5141933           31.2004617            0.6862684
 Magnitude           :                                                    0.6862684

 ------------------------------------------------------------------------------------

*** tstop() called on Lenovo-Y540-Zoha at Tue Sep 27 18:45:15 2022
Module time:
	user time   =        nan seconds =        nan minutes
	system time =        nan seconds =        nan minutes
	total time  =          1 seconds =       0.02 minutes
Total time:
	user time   =        nan seconds =        nan minutes
	system time =        nan seconds =        nan minutes
	total time  =       1134 seconds =      18.90 minutes

    Psi4 stopped on: Tuesday, 27 September 2022 06:45PM
    Psi4 wall time for execution: 0:00:01.01


    -----------------------------------------------------------------------
          Psi4: An Open-Source Ab Initio Electronic Structure Package
                               Psi4 1.6.1 release

                         Git: Rev {HEAD} 5b9f6e3 


    D. G. A. Smith, L. A. Burns, A. C. Simmonett, R. M. Parrish,
    M. C. Schieber, R. Galvelis, P. Kraus, H. Kruse, R. Di Remigio,
    A. Alenaizan, A. M. James, S. Lehtola, J. P. Misiewicz, M. Scheurer,
    R. A. Shaw, J. B. Schriber, Y. Xie, Z. L. Glick, D. A. Sirianni,
    J. S. O'Brien, J. M. Waldrop, A. Kumar, E. G. Hohenstein,
    B. P. Pritchard, B. R. Brooks, H. F. Schaefer III, A. Yu. Sokolov,
    K. Patkowski, A. E. DePrince III, U. Bozkaya, R. A. King,
    F. A. Evangelista, J. M. Turney, T. D. Crawford, C. D. Sherrill,
    J. Chem. Phys. 152(18) 184108 (2020). https://doi.org/10.1063/5.0006002

                            Additional Code Authors
    E. T. Seidl, C. L. Janssen, E. F. Valeev, M. L. Leininger,
    J. F. Gonthier, R. M. Richard, H. R. McAlexander, M. Saitow, X. Wang,
    P. Verma, M. H. Lechner, and A. Jiang

             Previous Authors, Complete List of Code Contributors,
                       and Citations for Specific Modules
    https://github.com/psi4/psi4/blob/master/codemeta.json
    https://github.com/psi4/psi4/graphs/contributors
    http://psicode.org/psi4manual/master/introduction.html#citing-psifour

    -----------------------------------------------------------------------


    Psi4 started on: Tuesday, 27 September 2022 06:25PM

    Process ID: 10544
    Host:       Lenovo-Y540-Zoha
    PSIDATADIR: C:\Users\64292\Anaconda3\envs\qm-tools\lib\share\psi4
    Memory:     476.8 MiB
    Threads:    1
    
  ==> Input QCSchema <==

--------------------------------------------------------------------------
{'driver': 'energy',
 'extras': {'psiapi': True, 'wfn_qcvars_only': True},
 'id': None,
 'keywords': {'function_kwargs': {}},
 'model': {'basis': 'aug-cc-pvdz', 'method': 'scf'},
 'molecule': {'atom_labels': ['1', '2', '3', '5', '6', '7'],
              'atomic_numbers': [8, 1, 1, 8, 1, 1],
              'fix_com': True,
              'fix_orientation': True,
              'fragment_charges': [0.0, 0.0],
              'fragment_multiplicities': [1, 1],
              'fragments': [[0, 1, 2], [3, 4, 5]],
              'geometry': [3.6985726236876735e-17, -0.05118338925575474, -3.116050043131342, 3.6985726236876735e-17,
                           -0.05118338925575474, -1.2263239176735146, 3.6985726236876735e-17, 1.7781852282291912,
                           -3.5898382770492736, 3.6985726236876735e-17, -0.05118338925575474, 2.931073558333708,
                           -1.5807867135447522, 0.37238713404440943, 3.875936621062622, 1.5807867135447509,
                           -0.4747539125559212, 3.875936621062623],
              'mass_numbers': [16, 1, 1, 16, 1, 1],
              'masses': [15.99491461957, 1.00782503223, 1.00782503223, 15.99491461957, 1.00782503223, 1.00782503223],
              'molecular_charge': 0.0,
              'molecular_multiplicity': 1,
              'name': 'H4O2',
              'provenance': {'creator': 'QCElemental',
                             'routine': 'qcelemental.molparse.from_string',
                             'version': 'v0.25.0'},
              'real': [True, True, True, False, False, False],
              'schema_name': 'qcschema_molecule',
              'schema_version': 2,
              'symbols': ['O', 'H', 'H', 'O', 'H', 'H'],
              'validated': True},
 'protocols': {'stdout': True},
 'provenance': {'creator': 'QCElemental', 'routine': 'qcelemental.models.results', 'version': 'v0.25.0'},
 'schema_name': 'qcschema_input',
 'schema_version': 1}
--------------------------------------------------------------------------

Scratch directory: C:\Users\64292\AppData\Local\Temp/

*** tstart() called on Lenovo-Y540-Zoha
*** at Tue Sep 27 18:45:15 2022

   => Loading Basis Set <=

    Name: AUG-CC-PVDZ
    Role: ORBITAL
    Keyword: BASIS
    atoms 1, 4     entry O          line   254 file C:\Users\64292\Anaconda3\envs\qm-tools\lib\share\psi4\basis\aug-cc-pvdz.gbs 
    atoms 2-3, 5-6 entry H          line    40 file C:\Users\64292\Anaconda3\envs\qm-tools\lib\share\psi4\basis\aug-cc-pvdz.gbs 


         ---------------------------------------------------------
                                   SCF
               by Justin Turney, Rob Parrish, Andy Simmonett
                          and Daniel G. A. Smith
                              RHF Reference
                        1 Threads,    476 MiB Core
         ---------------------------------------------------------

  ==> Geometry <==

    Molecular point group: c1
    Full point group: C1

    Geometry (in Bohr), charge = 0, multiplicity = 1:

       Center              X                  Y                   Z               Mass       
    ------------   -----------------  -----------------  -----------------  -----------------
         O            0.000000000000    -0.051183389256    -3.116050043131    15.994914619570
         H            0.000000000000    -0.051183389256    -1.226323917674     1.007825032230
         H            0.000000000000     1.778185228229    -3.589838277049     1.007825032230
      Gh(O)           0.000000000000    -0.051183389256     2.931073558334    15.994914619570
      Gh(H)          -1.580786713545     0.372387134044     3.875936621063     1.007825032230
      Gh(H)           1.580786713545    -0.474753912556     3.875936621063     1.007825032230

  Running in c1 symmetry.

  Rotational constants: A =      7.04439  B =      0.17687  C =      0.17527 [cm^-1]
  Rotational constants: A = 211185.36967  B =   5302.44809  C =   5254.56984 [MHz]
  Nuclear repulsion =    8.801420354575152

  Charge       = 0
  Multiplicity = 1
  Electrons    = 10
  Nalpha       = 5
  Nbeta        = 5

  ==> Algorithm <==

  SCF Algorithm Type is DF.
  DIIS enabled.
  MOM disabled.
  Fractional occupation disabled.
  Guess Type is SAD.
  Energy threshold   = 1.00e-06
  Density threshold  = 1.00e-06
  Integral threshold = 1.00e-12

  ==> Primary Basis <==

  Basis Set: AUG-CC-PVDZ
    Blend: AUG-CC-PVDZ
    Number of shells: 38
    Number of basis functions: 82
    Number of Cartesian functions: 86
    Spherical Harmonics?: true
    Max angular momentum: 2

   => Loading Basis Set <=

    Name: (AUG-CC-PVDZ AUX)
    Role: JKFIT
    Keyword: DF_BASIS_SCF
    atoms 1, 4     entry O          line   270 file C:\Users\64292\Anaconda3\envs\qm-tools\lib\share\psi4\basis\aug-cc-pvdz-jkfit.gbs 
    atoms 2-3, 5-6 entry H          line    70 file C:\Users\64292\Anaconda3\envs\qm-tools\lib\share\psi4\basis\aug-cc-pvdz-jkfit.gbs 

  ==> Integral Setup <==

  DFHelper Memory: AOs need 0.017 GiB; user supplied 0.349 GiB. Using in-core AOs.

  ==> MemDFJK: Density-Fitted J/K Matrices <==

    J tasked:                   Yes
    K tasked:                   Yes
    wK tasked:                   No
    OpenMP threads:               1
    Memory [MiB]:               357
    Algorithm:                 Core
    Schwarz Cutoff:           1E-12
    Mask sparsity (%):       0.0000
    Fitting Condition:        1E-10

   => Auxiliary Basis Set <=

  Basis Set: (AUG-CC-PVDZ AUX)
    Blend: AUG-CC-PVDZ-JKFIT
    Number of shells: 104
    Number of basis functions: 300
    Number of Cartesian functions: 342
    Spherical Harmonics?: true
    Max angular momentum: 3

  Minimum eigenvalue in the overlap matrix is 2.1722374355E-03.
  Reciprocal condition number of the overlap matrix is 3.0705770502E-04.
    Using symmetric orthogonalization.

  ==> Pre-Iterations <==

  SCF Guess: Superposition of Atomic Densities via on-the-fly atomic UHF (no occupation information).

   -------------------------
    Irrep   Nso     Nmo    
   -------------------------
     A         82      82 
   -------------------------
    Total      82      82
   -------------------------

  ==> Iterations <==

                           Total Energy        Delta E     RMS |[F,P]|

   @DF-RHF iter SAD:   -75.41487092739467   -7.54149e+01   0.00000e+00 
   @DF-RHF iter   1:   -75.94941382010455   -5.34543e-01   5.50549e-03 DIIS/ADIIS
   @DF-RHF iter   2:   -76.00129265166285   -5.18788e-02   3.77506e-03 DIIS/ADIIS
   @DF-RHF iter   3:   -76.03524708444338   -3.39544e-02   2.81139e-04 DIIS/ADIIS
   @DF-RHF iter   4:   -76.03570058606815   -4.53502e-04   6.60332e-05 DIIS
   @DF-RHF iter   5:   -76.03573074320011   -3.01571e-05   1.56310e-05 DIIS
   @DF-RHF iter   6:   -76.03573331500172   -2.57180e-06   3.09292e-06 DIIS
   @DF-RHF iter   7:   -76.03573341843651   -1.03435e-07   5.04921e-07 DIIS
  Energy and wave function converged.


  ==> Post-Iterations <==

    Orbital Energies [Eh]
    ---------------------

    Doubly Occupied:                                                      

       1A    -20.584248     2A     -1.335637     3A     -0.696496  
       4A     -0.577370     5A     -0.506076  

    Virtual:                                                              

       6A      0.024704     7A      0.049874     8A      0.057930  
       9A      0.078088    10A      0.133987    11A      0.150248  
      12A      0.183743    13A      0.188580    14A      0.219229  
      15A      0.224172    16A      0.228194    17A      0.266536  
      18A      0.324752    19A      0.361176    20A      0.366475  
      21A      0.381642    22A      0.402711    23A      0.417342  
      24A      0.420751    25A      0.465273    26A      0.487696  
      27A      0.500050    28A      0.521295    29A      0.535905  
      30A      0.563199    31A      0.607937    32A      0.647356  
      33A      0.735870    34A      0.828750    35A      0.906043  
      36A      0.956946    37A      1.043291    38A      1.105865  
      39A      1.145521    40A      1.168711    41A      1.194010  
      42A      1.200723    43A      1.276363    44A      1.299026  
      45A      1.306505    46A      1.333604    47A      1.348266  
      48A      1.422383    49A      1.490585    50A      1.556156  
      51A      1.703867    52A      1.986426    53A      1.992161  
      54A      2.064974    55A      2.081310    56A      2.341236  
      57A      2.368047    58A      2.380722    59A      2.392788  
      60A      2.407686    61A      2.432684    62A      2.584656  
      63A      2.717384    64A      2.875044    65A      2.984609  
      66A      3.393477    67A      3.675277    68A      3.701987  
      69A      3.725580    70A      3.919014    71A      3.946129  
      72A      4.036448    73A      4.261393    74A      4.893235  
      75A      4.940594    76A      5.035607    77A      5.324711  
      78A      5.326785    79A      5.584197    80A      6.310543  
      81A      6.810734    82A     33.527614  

    Final Occupation by Irrep:
              A 
    DOCC [     5 ]

  @DF-RHF Final Energy:   -76.03573341843651

   => Energetics <=

    Nuclear Repulsion Energy =              8.8014203545751517
    One-Electron Energy =                -122.2746320020857524
    Two-Electron Energy =                  37.4374782290740953
    Total Energy =                        -76.0357334184365072

Computation Completed


Properties will be evaluated at   0.000000,   0.000000,   0.000000 [a0]

Properties computed using the SCF density matrix


 Multipole Moments:

 ------------------------------------------------------------------------------------
     Multipole            Electronic (a.u.)      Nuclear  (a.u.)        Total (a.u.)
 ------------------------------------------------------------------------------------

 L = 1.  Multiply by 2.5417464519 to convert [e a0] to [Debye]
 Dipole X            :         -0.0000429            0.0000000           -0.0000429
 Dipole Y            :         -0.6854146            1.3175347            0.6321201
 Dipole Z            :         30.2336650          -29.7445625            0.4891024
 Magnitude           :                                                    0.7992478

 ------------------------------------------------------------------------------------

*** tstop() called on Lenovo-Y540-Zoha at Tue Sep 27 18:45:16 2022
Module time:
	user time   =        nan seconds =        nan minutes
	system time =        nan seconds =        nan minutes
	total time  =          1 seconds =       0.02 minutes
Total time:
	user time   =        nan seconds =        nan minutes
	system time =        nan seconds =        nan minutes
	total time  =       1135 seconds =      18.92 minutes

    Psi4 stopped on: Tuesday, 27 September 2022 06:45PM
    Psi4 wall time for execution: 0:00:01.03


    -----------------------------------------------------------------------
          Psi4: An Open-Source Ab Initio Electronic Structure Package
                               Psi4 1.6.1 release

                         Git: Rev {HEAD} 5b9f6e3 


    D. G. A. Smith, L. A. Burns, A. C. Simmonett, R. M. Parrish,
    M. C. Schieber, R. Galvelis, P. Kraus, H. Kruse, R. Di Remigio,
    A. Alenaizan, A. M. James, S. Lehtola, J. P. Misiewicz, M. Scheurer,
    R. A. Shaw, J. B. Schriber, Y. Xie, Z. L. Glick, D. A. Sirianni,
    J. S. O'Brien, J. M. Waldrop, A. Kumar, E. G. Hohenstein,
    B. P. Pritchard, B. R. Brooks, H. F. Schaefer III, A. Yu. Sokolov,
    K. Patkowski, A. E. DePrince III, U. Bozkaya, R. A. King,
    F. A. Evangelista, J. M. Turney, T. D. Crawford, C. D. Sherrill,
    J. Chem. Phys. 152(18) 184108 (2020). https://doi.org/10.1063/5.0006002

                            Additional Code Authors
    E. T. Seidl, C. L. Janssen, E. F. Valeev, M. L. Leininger,
    J. F. Gonthier, R. M. Richard, H. R. McAlexander, M. Saitow, X. Wang,
    P. Verma, M. H. Lechner, and A. Jiang

             Previous Authors, Complete List of Code Contributors,
                       and Citations for Specific Modules
    https://github.com/psi4/psi4/blob/master/codemeta.json
    https://github.com/psi4/psi4/graphs/contributors
    http://psicode.org/psi4manual/master/introduction.html#citing-psifour

    -----------------------------------------------------------------------


    Psi4 started on: Tuesday, 27 September 2022 06:25PM

    Process ID: 10544
    Host:       Lenovo-Y540-Zoha
    PSIDATADIR: C:\Users\64292\Anaconda3\envs\qm-tools\lib\share\psi4
    Memory:     476.8 MiB
    Threads:    1
    
  ==> Input QCSchema <==

--------------------------------------------------------------------------
{'driver': 'energy',
 'extras': {'psiapi': True, 'wfn_qcvars_only': True},
 'id': None,
 'keywords': {'function_kwargs': {}},
 'model': {'basis': 'aug-cc-pvdz', 'method': 'scf'},
 'molecule': {'atom_labels': ['1', '2', '3', '5', '6', '7'],
              'atomic_numbers': [8, 1, 1, 8, 1, 1],
              'fix_com': True,
              'fix_orientation': True,
              'fragment_charges': [0.0, 0.0],
              'fragment_multiplicities': [1, 1],
              'fragments': [[0, 1, 2], [3, 4, 5]],
              'geometry': [3.6985726236876735e-17, -0.05118338925575474, -3.116050043131342, 3.6985726236876735e-17,
                           -0.05118338925575474, -1.2263239176735146, 3.6985726236876735e-17, 1.7781852282291912,
                           -3.5898382770492736, 3.6985726236876735e-17, -0.05118338925575474, 2.931073558333708,
                           -1.5807867135447522, 0.37238713404440943, 3.875936621062622, 1.5807867135447509,
                           -0.4747539125559212, 3.875936621062623],
              'mass_numbers': [16, 1, 1, 16, 1, 1],
              'masses': [15.99491461957, 1.00782503223, 1.00782503223, 15.99491461957, 1.00782503223, 1.00782503223],
              'molecular_charge': 0.0,
              'molecular_multiplicity': 1,
              'name': 'H4O2',
              'provenance': {'creator': 'QCElemental',
                             'routine': 'qcelemental.molparse.from_string',
                             'version': 'v0.25.0'},
              'real': [True, True, True, True, True, True],
              'schema_name': 'qcschema_molecule',
              'schema_version': 2,
              'symbols': ['O', 'H', 'H', 'O', 'H', 'H'],
              'validated': True},
 'protocols': {'stdout': True},
 'provenance': {'creator': 'QCElemental', 'routine': 'qcelemental.models.results', 'version': 'v0.25.0'},
 'schema_name': 'qcschema_input',
 'schema_version': 1}
--------------------------------------------------------------------------

Scratch directory: C:\Users\64292\AppData\Local\Temp/

*** tstart() called on Lenovo-Y540-Zoha
*** at Tue Sep 27 18:45:17 2022

   => Loading Basis Set <=

    Name: AUG-CC-PVDZ
    Role: ORBITAL
    Keyword: BASIS
    atoms 1, 4     entry O          line   254 file C:\Users\64292\Anaconda3\envs\qm-tools\lib\share\psi4\basis\aug-cc-pvdz.gbs 
    atoms 2-3, 5-6 entry H          line    40 file C:\Users\64292\Anaconda3\envs\qm-tools\lib\share\psi4\basis\aug-cc-pvdz.gbs 


         ---------------------------------------------------------
                                   SCF
               by Justin Turney, Rob Parrish, Andy Simmonett
                          and Daniel G. A. Smith
                              RHF Reference
                        1 Threads,    476 MiB Core
         ---------------------------------------------------------

  ==> Geometry <==

    Molecular point group: c1
    Full point group: C1

    Geometry (in Bohr), charge = 0, multiplicity = 1:

       Center              X                  Y                   Z               Mass       
    ------------   -----------------  -----------------  -----------------  -----------------
         O            0.000000000000    -0.051183389256    -3.116050043131    15.994914619570
         H            0.000000000000    -0.051183389256    -1.226323917674     1.007825032230
         H            0.000000000000     1.778185228229    -3.589838277049     1.007825032230
         O            0.000000000000    -0.051183389256     2.931073558334    15.994914619570
         H           -1.580786713545     0.372387134044     3.875936621063     1.007825032230
         H            1.580786713545    -0.474753912556     3.875936621063     1.007825032230

  Running in c1 symmetry.

  Rotational constants: A =      7.04439  B =      0.17687  C =      0.17527 [cm^-1]
  Rotational constants: A = 211185.36967  B =   5302.44809  C =   5254.56984 [MHz]
  Nuclear repulsion =   34.118736927260308

  Charge       = 0
  Multiplicity = 1
  Electrons    = 20
  Nalpha       = 10
  Nbeta        = 10

  ==> Algorithm <==

  SCF Algorithm Type is DF.
  DIIS enabled.
  MOM disabled.
  Fractional occupation disabled.
  Guess Type is SAD.
  Energy threshold   = 1.00e-06
  Density threshold  = 1.00e-06
  Integral threshold = 1.00e-12

  ==> Primary Basis <==

  Basis Set: AUG-CC-PVDZ
    Blend: AUG-CC-PVDZ
    Number of shells: 38
    Number of basis functions: 82
    Number of Cartesian functions: 86
    Spherical Harmonics?: true
    Max angular momentum: 2

   => Loading Basis Set <=

    Name: (AUG-CC-PVDZ AUX)
    Role: JKFIT
    Keyword: DF_BASIS_SCF
    atoms 1, 4     entry O          line   270 file C:\Users\64292\Anaconda3\envs\qm-tools\lib\share\psi4\basis\aug-cc-pvdz-jkfit.gbs 
    atoms 2-3, 5-6 entry H          line    70 file C:\Users\64292\Anaconda3\envs\qm-tools\lib\share\psi4\basis\aug-cc-pvdz-jkfit.gbs 

  ==> Integral Setup <==

  DFHelper Memory: AOs need 0.017 GiB; user supplied 0.349 GiB. Using in-core AOs.

  ==> MemDFJK: Density-Fitted J/K Matrices <==

    J tasked:                   Yes
    K tasked:                   Yes
    wK tasked:                   No
    OpenMP threads:               1
    Memory [MiB]:               357
    Algorithm:                 Core
    Schwarz Cutoff:           1E-12
    Mask sparsity (%):       0.0000
    Fitting Condition:        1E-10

   => Auxiliary Basis Set <=

  Basis Set: (AUG-CC-PVDZ AUX)
    Blend: AUG-CC-PVDZ-JKFIT
    Number of shells: 104
    Number of basis functions: 300
    Number of Cartesian functions: 342
    Spherical Harmonics?: true
    Max angular momentum: 3

  Minimum eigenvalue in the overlap matrix is 2.1722374355E-03.
  Reciprocal condition number of the overlap matrix is 3.0705770502E-04.
    Using symmetric orthogonalization.

  ==> Pre-Iterations <==

  SCF Guess: Superposition of Atomic Densities via on-the-fly atomic UHF (no occupation information).

   -------------------------
    Irrep   Nso     Nmo    
   -------------------------
     A         82      82 
   -------------------------
    Total      82      82
   -------------------------

  ==> Iterations <==

                           Total Energy        Delta E     RMS |[F,P]|

   @DF-RHF iter SAD:  -150.86135279534744   -1.50861e+02   0.00000e+00 
   @DF-RHF iter   1:  -151.91107649577100   -1.04972e+00   7.57086e-03 DIIS/ADIIS
   @DF-RHF iter   2:  -152.01112809145377   -1.00052e-01   5.01846e-03 DIIS/ADIIS
   @DF-RHF iter   3:  -152.07079364372430   -5.96656e-02   4.08570e-04 DIIS/ADIIS
   @DF-RHF iter   4:  -152.07174276074954   -9.49117e-04   8.98219e-05 DIIS
   @DF-RHF iter   5:  -152.07179916587290   -5.64051e-05   2.62061e-05 DIIS
   @DF-RHF iter   6:  -152.07180446321235   -5.29734e-06   1.19869e-05 DIIS
   @DF-RHF iter   7:  -152.07180515518161   -6.91969e-07   2.61951e-06 DIIS
   @DF-RHF iter   8:  -152.07180522398619   -6.88046e-08   4.51019e-07 DIIS
  Energy and wave function converged.


  ==> Post-Iterations <==

    Orbital Energies [Eh]
    ---------------------

    Doubly Occupied:                                                      

       1A    -20.597233     2A    -20.556111     3A     -1.348611  
       4A     -1.309151     5A     -0.742737     6A     -0.672969  
       7A     -0.578850     8A     -0.546350     9A     -0.523228  
      10A     -0.479973  

    Virtual:                                                              

      11A      0.026388    12A      0.051265    13A      0.055797  
      14A      0.088001    15A      0.175049    16A      0.183992  
      17A      0.201985    18A      0.210636    19A      0.224051  
      20A      0.236146    21A      0.246099    22A      0.280139  
      23A      0.299318    24A      0.310722    25A      0.341731  
      26A      0.360434    27A      0.395213    28A      0.423106  
      29A      0.437015    30A      0.490645    31A      0.508200  
      32A      0.529087    33A      0.540981    34A      0.586551  
      35A      0.629032    36A      0.643158    37A      0.664977  
      38A      0.773641    39A      0.831282    40A      0.859187  
      41A      0.913620    42A      0.985797    43A      1.100023  
      44A      1.126279    45A      1.134041    46A      1.189496  
      47A      1.197093    48A      1.209098    49A      1.349552  
      50A      1.421879    51A      1.457324    52A      1.492035  
      53A      1.515593    54A      1.597974    55A      1.618170  
      56A      1.937923    57A      1.952103    58A      2.017044  
      59A      2.025589    60A      2.031229    61A      2.037619  
      62A      2.118265    63A      2.346901    64A      2.399711  
      65A      2.420079    66A      2.473422    67A      2.510283  
      68A      2.686356    69A      2.753317    70A      2.765120  
      71A      2.945464    72A      3.012763    73A      3.665913  
      74A      3.678896    75A      3.701415    76A      3.736693  
      77A      3.757101    78A      3.759253    79A      4.066743  
      80A      4.123191    81A      4.164280    82A      4.312931  

    Final Occupation by Irrep:
              A 
    DOCC [    10 ]

  @DF-RHF Final Energy:  -152.07180522398619

   => Energetics <=

    Nuclear Repulsion Energy =             34.1187369272603078
    One-Electron Energy =                -277.6706360852236912
    Two-Electron Energy =                  91.4800939339772015
    Total Energy =                       -152.0718052239861890

Computation Completed


Properties will be evaluated at   0.000000,   0.000000,   0.000000 [a0]

Properties computed using the SCF density matrix


 Multipole Moments:

 ------------------------------------------------------------------------------------
     Multipole            Electronic (a.u.)      Nuclear  (a.u.)        Total (a.u.)
 ------------------------------------------------------------------------------------

 L = 1.  Multiply by 2.5417464519 to convert [e a0] to [Debye]
 Dipole X            :          0.0006240           -0.0000000            0.0006240
 Dipole Y            :         -0.1936686            0.8057008            0.6120323
 Dipole Z            :         -0.0942419            1.4558992            1.3616573
 Magnitude           :                                                    1.4928812

 ------------------------------------------------------------------------------------

*** tstop() called on Lenovo-Y540-Zoha at Tue Sep 27 18:45:17 2022
Module time:
	user time   =        nan seconds =        nan minutes
	system time =        nan seconds =        nan minutes
	total time  =          0 seconds =       0.00 minutes
Total time:
	user time   =        nan seconds =        nan minutes
	system time =        nan seconds =        nan minutes
	total time  =       1136 seconds =      18.93 minutes

    Psi4 stopped on: Tuesday, 27 September 2022 06:45PM
    Psi4 wall time for execution: 0:00:01.03


  //>>>>>>>>>>>>>>>>>>>>>>>>>>>>>>>>>>>//
  //          ManyBody Results         //
  //<<<<<<<<<<<<<<<<<<<<<<<<<<<<<<<<<<<//


   ==> N-Body: Counterpoise Corrected (CP) energies <==

        n-Body     Total Energy            Interaction Energy                          N-body Contribution to Interaction Energy
                   [Eh]                    [Eh]                  [kcal/mol]            [Eh]                  [kcal/mol]
             1  N/A                         0.000000000000        0.000000000000        0.000000000000        0.000000000000
  FULL/RTN   2  N/A                        -0.006194270407       -3.886963363662       -0.006194270407       -3.886963363662

