
Scratch directory: C:\Users\64292\AppData\Local\Temp/

  //>>>>>>>>>>>>>>>>>>>>>>>>>>>>>>>>>>>>>//
  // ManyBody Setup: N-Body Levels [1, 2]//
  //<<<<<<<<<<<<<<<<<<<<<<<<<<<<<<<<<<<<<//

        Number of 1-body computations:     2
        Number of 2-body computations:     1

    -----------------------------------------------------------------------
          Psi4: An Open-Source Ab Initio Electronic Structure Package
                               Psi4 1.6.1 release

                         Git: Rev {HEAD} 5b9f6e3 


    D. G. A. Smith, L. A. Burns, A. C. Simmonett, R. M. Parrish,
    M. C. Schieber, R. Galvelis, P. Kraus, H. Kruse, R. Di Remigio,
    A. Alenaizan, A. M. James, S. Lehtola, J. P. Misiewicz, M. Scheurer,
    R. A. Shaw, J. B. Schriber, Y. Xie, Z. L. Glick, D. A. Sirianni,
    J. S. O'Brien, J. M. Waldrop, A. Kumar, E. G. Hohenstein,
    B. P. Pritchard, B. R. Brooks, H. F. Schaefer III, A. Yu. Sokolov,
    K. Patkowski, A. E. DePrince III, U. Bozkaya, R. A. King,
    F. A. Evangelista, J. M. Turney, T. D. Crawford, C. D. Sherrill,
    J. Chem. Phys. 152(18) 184108 (2020). https://doi.org/10.1063/5.0006002

                            Additional Code Authors
    E. T. Seidl, C. L. Janssen, E. F. Valeev, M. L. Leininger,
    J. F. Gonthier, R. M. Richard, H. R. McAlexander, M. Saitow, X. Wang,
    P. Verma, M. H. Lechner, and A. Jiang

             Previous Authors, Complete List of Code Contributors,
                       and Citations for Specific Modules
    https://github.com/psi4/psi4/blob/master/codemeta.json
    https://github.com/psi4/psi4/graphs/contributors
    http://psicode.org/psi4manual/master/introduction.html#citing-psifour

    -----------------------------------------------------------------------


    Psi4 started on: Tuesday, 27 September 2022 06:25PM

    Process ID: 10544
    Host:       Lenovo-Y540-Zoha
    PSIDATADIR: C:\Users\64292\Anaconda3\envs\qm-tools\lib\share\psi4
    Memory:     476.8 MiB
    Threads:    1
    
  ==> Input QCSchema <==

--------------------------------------------------------------------------
{'driver': 'energy',
 'extras': {'psiapi': True, 'wfn_qcvars_only': True},
 'id': None,
 'keywords': {'function_kwargs': {}},
 'model': {'basis': 'aug-cc-pvdz', 'method': 'scf'},
 'molecule': {'atom_labels': ['1', '2', '3', '5', '6', '7'],
              'atomic_numbers': [8, 1, 1, 8, 1, 1],
              'fix_com': True,
              'fix_orientation': True,
              'fragment_charges': [0.0, 0.0],
              'fragment_multiplicities': [1, 1],
              'fragments': [[0, 1, 2], [3, 4, 5]],
              'geometry': [3.6985726236876735e-17, -0.051183389255754747, -2.8325911243126685, 3.6985726236876735e-17,
                           -0.051183389255754747, -0.9428649988548402, 3.6985726236876735e-17, 1.7781852282291912,
                           -3.3063793582306, 3.6985726236876735e-17, -0.051183389255754747, 2.6476146395150337,
                           -1.4172945940933719, 0.7670920261650536, 3.592477702243947, 1.4172945940933706,
                           -0.8694588046765652, 3.592477702243947],
              'mass_numbers': [16, 1, 1, 16, 1, 1],
              'masses': [15.99491461957, 1.00782503223, 1.00782503223, 15.99491461957, 1.00782503223, 1.00782503223],
              'molecular_charge': 0.0,
              'molecular_multiplicity': 1,
              'name': 'H4O2',
              'provenance': {'creator': 'QCElemental',
                             'routine': 'qcelemental.molparse.from_string',
                             'version': 'v0.25.0'},
              'real': [False, False, False, True, True, True],
              'schema_name': 'qcschema_molecule',
              'schema_version': 2,
              'symbols': ['O', 'H', 'H', 'O', 'H', 'H'],
              'validated': True},
 'protocols': {'stdout': True},
 'provenance': {'creator': 'QCElemental', 'routine': 'qcelemental.models.results', 'version': 'v0.25.0'},
 'schema_name': 'qcschema_input',
 'schema_version': 1}
--------------------------------------------------------------------------

Scratch directory: C:\Users\64292\AppData\Local\Temp/

*** tstart() called on Lenovo-Y540-Zoha
*** at Tue Sep 27 18:40:47 2022

   => Loading Basis Set <=

    Name: AUG-CC-PVDZ
    Role: ORBITAL
    Keyword: BASIS
    atoms 1, 4     entry O          line   254 file C:\Users\64292\Anaconda3\envs\qm-tools\lib\share\psi4\basis\aug-cc-pvdz.gbs 
    atoms 2-3, 5-6 entry H          line    40 file C:\Users\64292\Anaconda3\envs\qm-tools\lib\share\psi4\basis\aug-cc-pvdz.gbs 


         ---------------------------------------------------------
                                   SCF
               by Justin Turney, Rob Parrish, Andy Simmonett
                          and Daniel G. A. Smith
                              RHF Reference
                        1 Threads,    476 MiB Core
         ---------------------------------------------------------

  ==> Geometry <==

    Molecular point group: c1
    Full point group: C1

    Geometry (in Bohr), charge = 0, multiplicity = 1:

       Center              X                  Y                   Z               Mass       
    ------------   -----------------  -----------------  -----------------  -----------------
      Gh(O)           0.000000000000    -0.051183389256    -2.832591124313    15.994914619570
      Gh(H)           0.000000000000    -0.051183389256    -0.942864998855     1.007825032230
      Gh(H)           0.000000000000     1.778185228229    -3.306379358231     1.007825032230
         O            0.000000000000    -0.051183389256     2.647614639515    15.994914619570
         H           -1.417294594093     0.767092026165     3.592477702244     1.007825032230
         H            1.417294594093    -0.869458804677     3.592477702244     1.007825032230

  Running in c1 symmetry.

  Rotational constants: A =      7.04812  B =      0.21466  C =      0.21112 [cm^-1]
  Rotational constants: A = 211297.33493  B =   6435.28386  C =   6329.32109 [MHz]
  Nuclear repulsion =    8.772355975749342

  Charge       = 0
  Multiplicity = 1
  Electrons    = 10
  Nalpha       = 5
  Nbeta        = 5

  ==> Algorithm <==

  SCF Algorithm Type is DF.
  DIIS enabled.
  MOM disabled.
  Fractional occupation disabled.
  Guess Type is SAD.
  Energy threshold   = 1.00e-06
  Density threshold  = 1.00e-06
  Integral threshold = 1.00e-12

  ==> Primary Basis <==

  Basis Set: AUG-CC-PVDZ
    Blend: AUG-CC-PVDZ
    Number of shells: 38
    Number of basis functions: 82
    Number of Cartesian functions: 86
    Spherical Harmonics?: true
    Max angular momentum: 2

   => Loading Basis Set <=

    Name: (AUG-CC-PVDZ AUX)
    Role: JKFIT
    Keyword: DF_BASIS_SCF
    atoms 1, 4     entry O          line   270 file C:\Users\64292\Anaconda3\envs\qm-tools\lib\share\psi4\basis\aug-cc-pvdz-jkfit.gbs 
    atoms 2-3, 5-6 entry H          line    70 file C:\Users\64292\Anaconda3\envs\qm-tools\lib\share\psi4\basis\aug-cc-pvdz-jkfit.gbs 

  ==> Integral Setup <==

  DFHelper Memory: AOs need 0.017 GiB; user supplied 0.349 GiB. Using in-core AOs.

  ==> MemDFJK: Density-Fitted J/K Matrices <==

    J tasked:                   Yes
    K tasked:                   Yes
    wK tasked:                   No
    OpenMP threads:               1
    Memory [MiB]:               357
    Algorithm:                 Core
    Schwarz Cutoff:           1E-12
    Mask sparsity (%):       0.0000
    Fitting Condition:        1E-10

   => Auxiliary Basis Set <=

  Basis Set: (AUG-CC-PVDZ AUX)
    Blend: AUG-CC-PVDZ-JKFIT
    Number of shells: 104
    Number of basis functions: 300
    Number of Cartesian functions: 342
    Spherical Harmonics?: true
    Max angular momentum: 3

  Minimum eigenvalue in the overlap matrix is 1.9998692852E-03.
  Reciprocal condition number of the overlap matrix is 2.6779641199E-04.
    Using symmetric orthogonalization.

  ==> Pre-Iterations <==

  SCF Guess: Superposition of Atomic Densities via on-the-fly atomic UHF (no occupation information).

   -------------------------
    Irrep   Nso     Nmo    
   -------------------------
     A         82      82 
   -------------------------
    Total      82      82
   -------------------------

  ==> Iterations <==

                           Total Energy        Delta E     RMS |[F,P]|

   @DF-RHF iter SAD:   -75.40236273240718   -7.54024e+01   0.00000e+00 
   @DF-RHF iter   1:   -75.94519660442718   -5.42834e-01   5.51036e-03 DIIS/ADIIS
   @DF-RHF iter   2:   -75.99639759270028   -5.12010e-02   3.73291e-03 DIIS/ADIIS
   @DF-RHF iter   3:   -76.02948929555407   -3.30917e-02   2.79060e-04 DIIS/ADIIS
   @DF-RHF iter   4:   -76.02996022659978   -4.70931e-04   6.67906e-05 DIIS
   @DF-RHF iter   5:   -76.02999286639009   -3.26398e-05   1.63011e-05 DIIS
   @DF-RHF iter   6:   -76.02999594470461   -3.07831e-06   3.50277e-06 DIIS
   @DF-RHF iter   7:   -76.02999610027219   -1.55568e-07   6.44657e-07 DIIS
  Energy and wave function converged.


  ==> Post-Iterations <==

    Orbital Energies [Eh]
    ---------------------

    Doubly Occupied:                                                      

       1A    -20.575846     2A     -1.325802     3A     -0.721135  
       4A     -0.548203     5A     -0.500606  

    Virtual:                                                              

       6A      0.032485     7A      0.054434     8A      0.056238  
       9A      0.081269    10A      0.166294    11A      0.173489  
      12A      0.181972    13A      0.198250    14A      0.212997  
      15A      0.223973    16A      0.241838    17A      0.253271  
      18A      0.319628    19A      0.324715    20A      0.369474  
      21A      0.403679    22A      0.440506    23A      0.454158  
      24A      0.469523    25A      0.507797    26A      0.528736  
      27A      0.536395    28A      0.550445    29A      0.571812  
      30A      0.626576    31A      0.654557    32A      0.663928  
      33A      0.717332    34A      0.866661    35A      0.882621  
      36A      0.951153    37A      0.962905    38A      1.136784  
      39A      1.148414    40A      1.189181    41A      1.210579  
      42A      1.216610    43A      1.287945    44A      1.338741  
      45A      1.407124    46A      1.414950    47A      1.439416  
      48A      1.503264    49A      1.576531    50A      1.587601  
      51A      1.776488    52A      1.998609    53A      2.050605  
      54A      2.058659    55A      2.168002    56A      2.360065  
      57A      2.371034    58A      2.412497    59A      2.471737  
      60A      2.500163    61A      2.547971    62A      2.664041  
      63A      2.782985    64A      2.879913    65A      2.945359  
      66A      3.440619    67A      3.701083    68A      3.732735  
      69A      3.859788    70A      3.912308    71A      4.095028  
      72A      4.147965    73A      4.198088    74A      4.915323  
      75A      4.962103    76A      5.004823    77A      5.188906  
      78A      5.493421    79A      5.698216    80A      6.484849  
      81A      6.926759    82A     33.575279  

    Final Occupation by Irrep:
              A 
    DOCC [     5 ]

  @DF-RHF Final Energy:   -76.02999610027219

   => Energetics <=

    Nuclear Repulsion Energy =              8.7723559757493419
    One-Electron Energy =                -122.2614839380929652
    Two-Electron Energy =                  37.4591318620714162
    Total Energy =                        -76.0299961002722000

Computation Completed


Properties will be evaluated at   0.000000,   0.000000,   0.000000 [a0]

Properties computed using the SCF density matrix


 Multipole Moments:

 ------------------------------------------------------------------------------------
     Multipole            Electronic (a.u.)      Nuclear  (a.u.)        Total (a.u.)
 ------------------------------------------------------------------------------------

 L = 1.  Multiply by 2.5417464519 to convert [e a0] to [Debye]
 Dipole X            :         -0.0001048           -0.0000000           -0.0001048
 Dipole Y            :          0.5115235           -0.5118339           -0.0003104
 Dipole Z            :        -27.6814016           28.3658725            0.6844710
 Magnitude           :                                                    0.6844710

 ------------------------------------------------------------------------------------

*** tstop() called on Lenovo-Y540-Zoha at Tue Sep 27 18:40:48 2022
Module time:
	user time   =        nan seconds =        nan minutes
	system time =        nan seconds =        nan minutes
	total time  =          1 seconds =       0.02 minutes
Total time:
	user time   =        nan seconds =        nan minutes
	system time =        nan seconds =        nan minutes
	total time  =        867 seconds =      14.45 minutes

    Psi4 stopped on: Tuesday, 27 September 2022 06:40PM
    Psi4 wall time for execution: 0:00:01.07


    -----------------------------------------------------------------------
          Psi4: An Open-Source Ab Initio Electronic Structure Package
                               Psi4 1.6.1 release

                         Git: Rev {HEAD} 5b9f6e3 


    D. G. A. Smith, L. A. Burns, A. C. Simmonett, R. M. Parrish,
    M. C. Schieber, R. Galvelis, P. Kraus, H. Kruse, R. Di Remigio,
    A. Alenaizan, A. M. James, S. Lehtola, J. P. Misiewicz, M. Scheurer,
    R. A. Shaw, J. B. Schriber, Y. Xie, Z. L. Glick, D. A. Sirianni,
    J. S. O'Brien, J. M. Waldrop, A. Kumar, E. G. Hohenstein,
    B. P. Pritchard, B. R. Brooks, H. F. Schaefer III, A. Yu. Sokolov,
    K. Patkowski, A. E. DePrince III, U. Bozkaya, R. A. King,
    F. A. Evangelista, J. M. Turney, T. D. Crawford, C. D. Sherrill,
    J. Chem. Phys. 152(18) 184108 (2020). https://doi.org/10.1063/5.0006002

                            Additional Code Authors
    E. T. Seidl, C. L. Janssen, E. F. Valeev, M. L. Leininger,
    J. F. Gonthier, R. M. Richard, H. R. McAlexander, M. Saitow, X. Wang,
    P. Verma, M. H. Lechner, and A. Jiang

             Previous Authors, Complete List of Code Contributors,
                       and Citations for Specific Modules
    https://github.com/psi4/psi4/blob/master/codemeta.json
    https://github.com/psi4/psi4/graphs/contributors
    http://psicode.org/psi4manual/master/introduction.html#citing-psifour

    -----------------------------------------------------------------------


    Psi4 started on: Tuesday, 27 September 2022 06:25PM

    Process ID: 10544
    Host:       Lenovo-Y540-Zoha
    PSIDATADIR: C:\Users\64292\Anaconda3\envs\qm-tools\lib\share\psi4
    Memory:     476.8 MiB
    Threads:    1
    
  ==> Input QCSchema <==

--------------------------------------------------------------------------
{'driver': 'energy',
 'extras': {'psiapi': True, 'wfn_qcvars_only': True},
 'id': None,
 'keywords': {'function_kwargs': {}},
 'model': {'basis': 'aug-cc-pvdz', 'method': 'scf'},
 'molecule': {'atom_labels': ['1', '2', '3', '5', '6', '7'],
              'atomic_numbers': [8, 1, 1, 8, 1, 1],
              'fix_com': True,
              'fix_orientation': True,
              'fragment_charges': [0.0, 0.0],
              'fragment_multiplicities': [1, 1],
              'fragments': [[0, 1, 2], [3, 4, 5]],
              'geometry': [3.6985726236876735e-17, -0.051183389255754747, -2.8325911243126685, 3.6985726236876735e-17,
                           -0.051183389255754747, -0.9428649988548402, 3.6985726236876735e-17, 1.7781852282291912,
                           -3.3063793582306, 3.6985726236876735e-17, -0.051183389255754747, 2.6476146395150337,
                           -1.4172945940933719, 0.7670920261650536, 3.592477702243947, 1.4172945940933706,
                           -0.8694588046765652, 3.592477702243947],
              'mass_numbers': [16, 1, 1, 16, 1, 1],
              'masses': [15.99491461957, 1.00782503223, 1.00782503223, 15.99491461957, 1.00782503223, 1.00782503223],
              'molecular_charge': 0.0,
              'molecular_multiplicity': 1,
              'name': 'H4O2',
              'provenance': {'creator': 'QCElemental',
                             'routine': 'qcelemental.molparse.from_string',
                             'version': 'v0.25.0'},
              'real': [True, True, True, False, False, False],
              'schema_name': 'qcschema_molecule',
              'schema_version': 2,
              'symbols': ['O', 'H', 'H', 'O', 'H', 'H'],
              'validated': True},
 'protocols': {'stdout': True},
 'provenance': {'creator': 'QCElemental', 'routine': 'qcelemental.models.results', 'version': 'v0.25.0'},
 'schema_name': 'qcschema_input',
 'schema_version': 1}
--------------------------------------------------------------------------

Scratch directory: C:\Users\64292\AppData\Local\Temp/

*** tstart() called on Lenovo-Y540-Zoha
*** at Tue Sep 27 18:40:48 2022

   => Loading Basis Set <=

    Name: AUG-CC-PVDZ
    Role: ORBITAL
    Keyword: BASIS
    atoms 1, 4     entry O          line   254 file C:\Users\64292\Anaconda3\envs\qm-tools\lib\share\psi4\basis\aug-cc-pvdz.gbs 
    atoms 2-3, 5-6 entry H          line    40 file C:\Users\64292\Anaconda3\envs\qm-tools\lib\share\psi4\basis\aug-cc-pvdz.gbs 


         ---------------------------------------------------------
                                   SCF
               by Justin Turney, Rob Parrish, Andy Simmonett
                          and Daniel G. A. Smith
                              RHF Reference
                        1 Threads,    476 MiB Core
         ---------------------------------------------------------

  ==> Geometry <==

    Molecular point group: c1
    Full point group: C1

    Geometry (in Bohr), charge = 0, multiplicity = 1:

       Center              X                  Y                   Z               Mass       
    ------------   -----------------  -----------------  -----------------  -----------------
         O            0.000000000000    -0.051183389256    -2.832591124313    15.994914619570
         H            0.000000000000    -0.051183389256    -0.942864998855     1.007825032230
         H            0.000000000000     1.778185228229    -3.306379358231     1.007825032230
      Gh(O)           0.000000000000    -0.051183389256     2.647614639515    15.994914619570
      Gh(H)          -1.417294594093     0.767092026165     3.592477702244     1.007825032230
      Gh(H)           1.417294594093    -0.869458804677     3.592477702244     1.007825032230

  Running in c1 symmetry.

  Rotational constants: A =      7.04812  B =      0.21466  C =      0.21112 [cm^-1]
  Rotational constants: A = 211297.33493  B =   6435.28386  C =   6329.32109 [MHz]
  Nuclear repulsion =    8.801420354575150

  Charge       = 0
  Multiplicity = 1
  Electrons    = 10
  Nalpha       = 5
  Nbeta        = 5

  ==> Algorithm <==

  SCF Algorithm Type is DF.
  DIIS enabled.
  MOM disabled.
  Fractional occupation disabled.
  Guess Type is SAD.
  Energy threshold   = 1.00e-06
  Density threshold  = 1.00e-06
  Integral threshold = 1.00e-12

  ==> Primary Basis <==

  Basis Set: AUG-CC-PVDZ
    Blend: AUG-CC-PVDZ
    Number of shells: 38
    Number of basis functions: 82
    Number of Cartesian functions: 86
    Spherical Harmonics?: true
    Max angular momentum: 2

   => Loading Basis Set <=

    Name: (AUG-CC-PVDZ AUX)
    Role: JKFIT
    Keyword: DF_BASIS_SCF
    atoms 1, 4     entry O          line   270 file C:\Users\64292\Anaconda3\envs\qm-tools\lib\share\psi4\basis\aug-cc-pvdz-jkfit.gbs 
    atoms 2-3, 5-6 entry H          line    70 file C:\Users\64292\Anaconda3\envs\qm-tools\lib\share\psi4\basis\aug-cc-pvdz-jkfit.gbs 

  ==> Integral Setup <==

  DFHelper Memory: AOs need 0.017 GiB; user supplied 0.349 GiB. Using in-core AOs.

  ==> MemDFJK: Density-Fitted J/K Matrices <==

    J tasked:                   Yes
    K tasked:                   Yes
    wK tasked:                   No
    OpenMP threads:               1
    Memory [MiB]:               357
    Algorithm:                 Core
    Schwarz Cutoff:           1E-12
    Mask sparsity (%):       0.0000
    Fitting Condition:        1E-10

   => Auxiliary Basis Set <=

  Basis Set: (AUG-CC-PVDZ AUX)
    Blend: AUG-CC-PVDZ-JKFIT
    Number of shells: 104
    Number of basis functions: 300
    Number of Cartesian functions: 342
    Spherical Harmonics?: true
    Max angular momentum: 3

  Minimum eigenvalue in the overlap matrix is 1.9998692852E-03.
  Reciprocal condition number of the overlap matrix is 2.6779641199E-04.
    Using symmetric orthogonalization.

  ==> Pre-Iterations <==

  SCF Guess: Superposition of Atomic Densities via on-the-fly atomic UHF (no occupation information).

   -------------------------
    Irrep   Nso     Nmo    
   -------------------------
     A         82      82 
   -------------------------
    Total      82      82
   -------------------------

  ==> Iterations <==

                           Total Energy        Delta E     RMS |[F,P]|

   @DF-RHF iter SAD:   -75.41487085820278   -7.54149e+01   0.00000e+00 
   @DF-RHF iter   1:   -75.94942662429573   -5.34556e-01   5.50666e-03 DIIS/ADIIS
   @DF-RHF iter   2:   -76.00130856103685   -5.18819e-02   3.77669e-03 DIIS/ADIIS
   @DF-RHF iter   3:   -76.03526905494317   -3.39605e-02   2.81145e-04 DIIS/ADIIS
   @DF-RHF iter   4:   -76.03572251763092   -4.53463e-04   6.60432e-05 DIIS
   @DF-RHF iter   5:   -76.03575269139009   -3.01738e-05   1.56451e-05 DIIS
   @DF-RHF iter   6:   -76.03575526842408   -2.57703e-06   3.09702e-06 DIIS
   @DF-RHF iter   7:   -76.03575537216092   -1.03737e-07   5.05981e-07 DIIS
  Energy and wave function converged.


  ==> Post-Iterations <==

    Orbital Energies [Eh]
    ---------------------

    Doubly Occupied:                                                      

       1A    -20.584234     2A     -1.335634     3A     -0.696486  
       4A     -0.577354     5A     -0.506062  

    Virtual:                                                              

       6A      0.024890     7A      0.050403     8A      0.058358  
       9A      0.080137    10A      0.134705    11A      0.149283  
      12A      0.184668    13A      0.193975    14A      0.220701  
      15A      0.227142    16A      0.229398    17A      0.271526  
      18A      0.330722    19A      0.356934    20A      0.370970  
      21A      0.393641    22A      0.398619    23A      0.420990  
      24A      0.421959    25A      0.475665    26A      0.482431  
      27A      0.492588    28A      0.527149    29A      0.557362  
      30A      0.583237    31A      0.621052    32A      0.650590  
      33A      0.746602    34A      0.860758    35A      0.917240  
      36A      0.976951    37A      1.047654    38A      1.110745  
      39A      1.157192    40A      1.176087    41A      1.181054  
      42A      1.201767    43A      1.280348    44A      1.296904  
      45A      1.303664    46A      1.331024    47A      1.399724  
      48A      1.451088    49A      1.503836    50A      1.584482  
      51A      1.748667    52A      1.985003    53A      1.998747  
      54A      2.060444    55A      2.086170    56A      2.347816  
      57A      2.374637    58A      2.381687    59A      2.396091  
      60A      2.453198    61A      2.502595    62A      2.621995  
      63A      2.718944    64A      2.958089    65A      2.991015  
      66A      3.450441    67A      3.676500    68A      3.705638  
      69A      3.735937    70A      3.965517    71A      3.983941  
      72A      4.059145    73A      4.310338    74A      4.920082  
      75A      4.934841    76A      5.060419    77A      5.324860  
      78A      5.377313    79A      5.602418    80A      6.412577  
      81A      6.805942    82A     33.529682  

    Final Occupation by Irrep:
              A 
    DOCC [     5 ]

  @DF-RHF Final Energy:   -76.03575537216092

   => Energetics <=

    Nuclear Repulsion Energy =              8.8014203545751499
    One-Electron Energy =                -122.2747910039840491
    Two-Electron Energy =                  37.4376152772479855
    Total Energy =                        -76.0357553721609207

Computation Completed


Properties will be evaluated at   0.000000,   0.000000,   0.000000 [a0]

Properties computed using the SCF density matrix


 Multipole Moments:

 ------------------------------------------------------------------------------------
     Multipole            Electronic (a.u.)      Nuclear  (a.u.)        Total (a.u.)
 ------------------------------------------------------------------------------------

 L = 1.  Multiply by 2.5417464519 to convert [e a0] to [Debye]
 Dipole X            :         -0.0001286            0.0000000           -0.0001286
 Dipole Y            :         -0.6855728            1.3175347            0.6319619
 Dipole Z            :         27.3988525          -26.9099734            0.4888791
 Magnitude           :                                                    0.7989860

 ------------------------------------------------------------------------------------

*** tstop() called on Lenovo-Y540-Zoha at Tue Sep 27 18:40:49 2022
Module time:
	user time   =        nan seconds =        nan minutes
	system time =        nan seconds =        nan minutes
	total time  =          1 seconds =       0.02 minutes
Total time:
	user time   =        nan seconds =        nan minutes
	system time =        nan seconds =        nan minutes
	total time  =        868 seconds =      14.47 minutes

    Psi4 stopped on: Tuesday, 27 September 2022 06:40PM
    Psi4 wall time for execution: 0:00:01.07


    -----------------------------------------------------------------------
          Psi4: An Open-Source Ab Initio Electronic Structure Package
                               Psi4 1.6.1 release

                         Git: Rev {HEAD} 5b9f6e3 


    D. G. A. Smith, L. A. Burns, A. C. Simmonett, R. M. Parrish,
    M. C. Schieber, R. Galvelis, P. Kraus, H. Kruse, R. Di Remigio,
    A. Alenaizan, A. M. James, S. Lehtola, J. P. Misiewicz, M. Scheurer,
    R. A. Shaw, J. B. Schriber, Y. Xie, Z. L. Glick, D. A. Sirianni,
    J. S. O'Brien, J. M. Waldrop, A. Kumar, E. G. Hohenstein,
    B. P. Pritchard, B. R. Brooks, H. F. Schaefer III, A. Yu. Sokolov,
    K. Patkowski, A. E. DePrince III, U. Bozkaya, R. A. King,
    F. A. Evangelista, J. M. Turney, T. D. Crawford, C. D. Sherrill,
    J. Chem. Phys. 152(18) 184108 (2020). https://doi.org/10.1063/5.0006002

                            Additional Code Authors
    E. T. Seidl, C. L. Janssen, E. F. Valeev, M. L. Leininger,
    J. F. Gonthier, R. M. Richard, H. R. McAlexander, M. Saitow, X. Wang,
    P. Verma, M. H. Lechner, and A. Jiang

             Previous Authors, Complete List of Code Contributors,
                       and Citations for Specific Modules
    https://github.com/psi4/psi4/blob/master/codemeta.json
    https://github.com/psi4/psi4/graphs/contributors
    http://psicode.org/psi4manual/master/introduction.html#citing-psifour

    -----------------------------------------------------------------------


    Psi4 started on: Tuesday, 27 September 2022 06:25PM

    Process ID: 10544
    Host:       Lenovo-Y540-Zoha
    PSIDATADIR: C:\Users\64292\Anaconda3\envs\qm-tools\lib\share\psi4
    Memory:     476.8 MiB
    Threads:    1
    
  ==> Input QCSchema <==

--------------------------------------------------------------------------
{'driver': 'energy',
 'extras': {'psiapi': True, 'wfn_qcvars_only': True},
 'id': None,
 'keywords': {'function_kwargs': {}},
 'model': {'basis': 'aug-cc-pvdz', 'method': 'scf'},
 'molecule': {'atom_labels': ['1', '2', '3', '5', '6', '7'],
              'atomic_numbers': [8, 1, 1, 8, 1, 1],
              'fix_com': True,
              'fix_orientation': True,
              'fragment_charges': [0.0, 0.0],
              'fragment_multiplicities': [1, 1],
              'fragments': [[0, 1, 2], [3, 4, 5]],
              'geometry': [3.6985726236876735e-17, -0.051183389255754747, -2.8325911243126685, 3.6985726236876735e-17,
                           -0.051183389255754747, -0.9428649988548402, 3.6985726236876735e-17, 1.7781852282291912,
                           -3.3063793582306, 3.6985726236876735e-17, -0.051183389255754747, 2.6476146395150337,
                           -1.4172945940933719, 0.7670920261650536, 3.592477702243947, 1.4172945940933706,
                           -0.8694588046765652, 3.592477702243947],
              'mass_numbers': [16, 1, 1, 16, 1, 1],
              'masses': [15.99491461957, 1.00782503223, 1.00782503223, 15.99491461957, 1.00782503223, 1.00782503223],
              'molecular_charge': 0.0,
              'molecular_multiplicity': 1,
              'name': 'H4O2',
              'provenance': {'creator': 'QCElemental',
                             'routine': 'qcelemental.molparse.from_string',
                             'version': 'v0.25.0'},
              'real': [True, True, True, True, True, True],
              'schema_name': 'qcschema_molecule',
              'schema_version': 2,
              'symbols': ['O', 'H', 'H', 'O', 'H', 'H'],
              'validated': True},
 'protocols': {'stdout': True},
 'provenance': {'creator': 'QCElemental', 'routine': 'qcelemental.models.results', 'version': 'v0.25.0'},
 'schema_name': 'qcschema_input',
 'schema_version': 1}
--------------------------------------------------------------------------

Scratch directory: C:\Users\64292\AppData\Local\Temp/

*** tstart() called on Lenovo-Y540-Zoha
*** at Tue Sep 27 18:40:50 2022

   => Loading Basis Set <=

    Name: AUG-CC-PVDZ
    Role: ORBITAL
    Keyword: BASIS
    atoms 1, 4     entry O          line   254 file C:\Users\64292\Anaconda3\envs\qm-tools\lib\share\psi4\basis\aug-cc-pvdz.gbs 
    atoms 2-3, 5-6 entry H          line    40 file C:\Users\64292\Anaconda3\envs\qm-tools\lib\share\psi4\basis\aug-cc-pvdz.gbs 


         ---------------------------------------------------------
                                   SCF
               by Justin Turney, Rob Parrish, Andy Simmonett
                          and Daniel G. A. Smith
                              RHF Reference
                        1 Threads,    476 MiB Core
         ---------------------------------------------------------

  ==> Geometry <==

    Molecular point group: c1
    Full point group: C1

    Geometry (in Bohr), charge = 0, multiplicity = 1:

       Center              X                  Y                   Z               Mass       
    ------------   -----------------  -----------------  -----------------  -----------------
         O            0.000000000000    -0.051183389256    -2.832591124313    15.994914619570
         H            0.000000000000    -0.051183389256    -0.942864998855     1.007825032230
         H            0.000000000000     1.778185228229    -3.306379358231     1.007825032230
         O            0.000000000000    -0.051183389256     2.647614639515    15.994914619570
         H           -1.417294594093     0.767092026165     3.592477702244     1.007825032230
         H            1.417294594093    -0.869458804677     3.592477702244     1.007825032230

  Running in c1 symmetry.

  Rotational constants: A =      7.04812  B =      0.21466  C =      0.21112 [cm^-1]
  Rotational constants: A = 211297.33493  B =   6435.28386  C =   6329.32109 [MHz]
  Nuclear repulsion =   35.866108331636241

  Charge       = 0
  Multiplicity = 1
  Electrons    = 20
  Nalpha       = 10
  Nbeta        = 10

  ==> Algorithm <==

  SCF Algorithm Type is DF.
  DIIS enabled.
  MOM disabled.
  Fractional occupation disabled.
  Guess Type is SAD.
  Energy threshold   = 1.00e-06
  Density threshold  = 1.00e-06
  Integral threshold = 1.00e-12

  ==> Primary Basis <==

  Basis Set: AUG-CC-PVDZ
    Blend: AUG-CC-PVDZ
    Number of shells: 38
    Number of basis functions: 82
    Number of Cartesian functions: 86
    Spherical Harmonics?: true
    Max angular momentum: 2

   => Loading Basis Set <=

    Name: (AUG-CC-PVDZ AUX)
    Role: JKFIT
    Keyword: DF_BASIS_SCF
    atoms 1, 4     entry O          line   270 file C:\Users\64292\Anaconda3\envs\qm-tools\lib\share\psi4\basis\aug-cc-pvdz-jkfit.gbs 
    atoms 2-3, 5-6 entry H          line    70 file C:\Users\64292\Anaconda3\envs\qm-tools\lib\share\psi4\basis\aug-cc-pvdz-jkfit.gbs 

  ==> Integral Setup <==

  DFHelper Memory: AOs need 0.017 GiB; user supplied 0.349 GiB. Using in-core AOs.

  ==> MemDFJK: Density-Fitted J/K Matrices <==

    J tasked:                   Yes
    K tasked:                   Yes
    wK tasked:                   No
    OpenMP threads:               1
    Memory [MiB]:               357
    Algorithm:                 Core
    Schwarz Cutoff:           1E-12
    Mask sparsity (%):       0.0000
    Fitting Condition:        1E-10

   => Auxiliary Basis Set <=

  Basis Set: (AUG-CC-PVDZ AUX)
    Blend: AUG-CC-PVDZ-JKFIT
    Number of shells: 104
    Number of basis functions: 300
    Number of Cartesian functions: 342
    Spherical Harmonics?: true
    Max angular momentum: 3

  Minimum eigenvalue in the overlap matrix is 1.9998692852E-03.
  Reciprocal condition number of the overlap matrix is 2.6779641199E-04.
    Using symmetric orthogonalization.

  ==> Pre-Iterations <==

  SCF Guess: Superposition of Atomic Densities via on-the-fly atomic UHF (no occupation information).

   -------------------------
    Irrep   Nso     Nmo    
   -------------------------
     A         82      82 
   -------------------------
    Total      82      82
   -------------------------

  ==> Iterations <==

                           Total Energy        Delta E     RMS |[F,P]|

   @DF-RHF iter SAD:  -150.90507196724221   -1.50905e+02   0.00000e+00 
   @DF-RHF iter   1:  -151.91370491088645   -1.00863e+00   7.48837e-03 DIIS/ADIIS
   @DF-RHF iter   2:  -152.01392598007729   -1.00221e-01   4.89851e-03 DIIS/ADIIS
   @DF-RHF iter   3:  -152.07067269022673   -5.67467e-02   4.15553e-04 DIIS/ADIIS
   @DF-RHF iter   4:  -152.07165597525434   -9.83285e-04   9.27026e-05 DIIS
   @DF-RHF iter   5:  -152.07171238598974   -5.64107e-05   3.34357e-05 DIIS
   @DF-RHF iter   6:  -152.07171860300656   -6.21702e-06   1.31885e-05 DIIS
   @DF-RHF iter   7:  -152.07171964943413   -1.04643e-06   2.49132e-06 DIIS
   @DF-RHF iter   8:  -152.07171971660537   -6.71712e-08   4.73644e-07 DIIS
  Energy and wave function converged.


  ==> Post-Iterations <==

    Orbital Energies [Eh]
    ---------------------

    Doubly Occupied:                                                      

       1A    -20.603374     2A    -20.545693     3A     -1.356893  
       4A     -1.300633     5A     -0.749609     6A     -0.672653  
       7A     -0.586162     8A     -0.535530     9A     -0.529471  
      10A     -0.471211  

    Virtual:                                                              

      11A      0.025109    12A      0.050115    13A      0.058139  
      14A      0.089245    15A      0.174081    16A      0.180991  
      17A      0.202661    18A      0.212766    19A      0.226945  
      20A      0.237265    21A      0.247904    22A      0.282644  
      23A      0.304646    24A      0.311704    25A      0.348083  
      26A      0.362001    27A      0.409421    28A      0.426988  
      29A      0.458290    30A      0.494453    31A      0.517160  
      32A      0.537125    33A      0.545084    34A      0.597903  
      35A      0.628826    36A      0.646889    37A      0.671599  
      38A      0.781563    39A      0.842944    40A      0.861101  
      41A      0.940961    42A      0.988260    43A      1.119063  
      44A      1.125309    45A      1.141621    46A      1.188464  
      47A      1.208626    48A      1.227015    49A      1.354649  
      50A      1.431901    51A      1.467886    52A      1.512866  
      53A      1.541653    54A      1.622472    55A      1.638912  
      56A      1.933094    57A      1.996223    58A      2.011481  
      59A      2.031912    60A      2.046769    61A      2.053640  
      62A      2.168982    63A      2.384397    64A      2.404681  
      65A      2.457695    66A      2.495735    67A      2.530246  
      68A      2.750665    69A      2.799726    70A      2.813920  
      71A      2.997008    72A      3.033384    73A      3.671944  
      74A      3.693800    75A      3.709788    76A      3.742672  
      77A      3.773013    78A      3.826687    79A      4.091633  
      80A      4.122094    81A      4.170511    82A      4.374463  

    Final Occupation by Irrep:
              A 
    DOCC [    10 ]

  @DF-RHF Final Energy:  -152.07171971660537

   => Energetics <=

    Nuclear Repulsion Energy =             35.8661083316362408
    One-Electron Energy =                -281.1731787859655469
    Two-Electron Energy =                  93.2353507377239339
    Total Energy =                       -152.0717197166053722

Computation Completed


Properties will be evaluated at   0.000000,   0.000000,   0.000000 [a0]

Properties computed using the SCF density matrix


 Multipole Moments:

 ------------------------------------------------------------------------------------
     Multipole            Electronic (a.u.)      Nuclear  (a.u.)        Total (a.u.)
 ------------------------------------------------------------------------------------

 L = 1.  Multiply by 2.5417464519 to convert [e a0] to [Debye]
 Dipole X            :          0.0014059           -0.0000000            0.0014059
 Dipole Y            :         -0.2021381            0.8057008            0.6035628
 Dipole Z            :         -0.0097661            1.4558992            1.4461331
 Magnitude           :                                                    1.5670325

 ------------------------------------------------------------------------------------

*** tstop() called on Lenovo-Y540-Zoha at Tue Sep 27 18:40:51 2022
Module time:
	user time   =        nan seconds =        nan minutes
	system time =        nan seconds =        nan minutes
	total time  =          1 seconds =       0.02 minutes
Total time:
	user time   =        nan seconds =        nan minutes
	system time =        nan seconds =        nan minutes
	total time  =        870 seconds =      14.50 minutes

    Psi4 stopped on: Tuesday, 27 September 2022 06:40PM
    Psi4 wall time for execution: 0:00:01.04


  //>>>>>>>>>>>>>>>>>>>>>>>>>>>>>>>>>>>//
  //          ManyBody Results         //
  //<<<<<<<<<<<<<<<<<<<<<<<<<<<<<<<<<<<//


   ==> N-Body: Counterpoise Corrected (CP) energies <==

        n-Body     Total Energy            Interaction Energy                          N-body Contribution to Interaction Energy
                   [Eh]                    [Eh]                  [kcal/mol]            [Eh]                  [kcal/mol]
             1  N/A                         0.000000000000        0.000000000000        0.000000000000        0.000000000000
  FULL/RTN   2  N/A                        -0.005968244172       -3.745129759914       -0.005968244172       -3.745129759914

