
Scratch directory: C:\Users\64292\AppData\Local\Temp/

  //>>>>>>>>>>>>>>>>>>>>>>>>>>>>>>>>>>>>>//
  // ManyBody Setup: N-Body Levels [1, 2]//
  //<<<<<<<<<<<<<<<<<<<<<<<<<<<<<<<<<<<<<//

        Number of 1-body computations:     2
        Number of 2-body computations:     1

    -----------------------------------------------------------------------
          Psi4: An Open-Source Ab Initio Electronic Structure Package
                               Psi4 1.6.1 release

                         Git: Rev {HEAD} 5b9f6e3 


    D. G. A. Smith, L. A. Burns, A. C. Simmonett, R. M. Parrish,
    M. C. Schieber, R. Galvelis, P. Kraus, H. Kruse, R. Di Remigio,
    A. Alenaizan, A. M. James, S. Lehtola, J. P. Misiewicz, M. Scheurer,
    R. A. Shaw, J. B. Schriber, Y. Xie, Z. L. Glick, D. A. Sirianni,
    J. S. O'Brien, J. M. Waldrop, A. Kumar, E. G. Hohenstein,
    B. P. Pritchard, B. R. Brooks, H. F. Schaefer III, A. Yu. Sokolov,
    K. Patkowski, A. E. DePrince III, U. Bozkaya, R. A. King,
    F. A. Evangelista, J. M. Turney, T. D. Crawford, C. D. Sherrill,
    J. Chem. Phys. 152(18) 184108 (2020). https://doi.org/10.1063/5.0006002

                            Additional Code Authors
    E. T. Seidl, C. L. Janssen, E. F. Valeev, M. L. Leininger,
    J. F. Gonthier, R. M. Richard, H. R. McAlexander, M. Saitow, X. Wang,
    P. Verma, M. H. Lechner, and A. Jiang

             Previous Authors, Complete List of Code Contributors,
                       and Citations for Specific Modules
    https://github.com/psi4/psi4/blob/master/codemeta.json
    https://github.com/psi4/psi4/graphs/contributors
    http://psicode.org/psi4manual/master/introduction.html#citing-psifour

    -----------------------------------------------------------------------


    Psi4 started on: Tuesday, 27 September 2022 06:25PM

    Process ID: 10544
    Host:       Lenovo-Y540-Zoha
    PSIDATADIR: C:\Users\64292\Anaconda3\envs\qm-tools\lib\share\psi4
    Memory:     476.8 MiB
    Threads:    1
    
  ==> Input QCSchema <==

--------------------------------------------------------------------------
{'driver': 'energy',
 'extras': {'psiapi': True, 'wfn_qcvars_only': True},
 'id': None,
 'keywords': {'function_kwargs': {}},
 'model': {'basis': 'aug-cc-pvdz', 'method': 'scf'},
 'molecule': {'atom_labels': ['1', '2', '3', '5', '6', '7'],
              'atomic_numbers': [8, 1, 1, 8, 1, 1],
              'fix_com': True,
              'fix_orientation': True,
              'fragment_charges': [0.0, 0.0],
              'fragment_multiplicities': [1, 1],
              'fragments': [[0, 1, 2], [3, 4, 5]],
              'geometry': [3.6985726236876735e-17, -0.051183389255754747, -2.7381048180397762, 3.6985726236876735e-17,
                           -0.051183389255754747, -0.8483786925819481, 3.6985726236876735e-17, 1.7781852282291912,
                           -3.211893051957708, 3.6985726236876735e-17, -0.051183389255754747, 2.5531283332421424,
                           -1.4172945940933719, 0.7670920261650536, 3.4979913959710567, 1.4172945940933706,
                           -0.8694588046765652, 3.4979913959710567],
              'mass_numbers': [16, 1, 1, 16, 1, 1],
              'masses': [15.99491461957, 1.00782503223, 1.00782503223, 15.99491461957, 1.00782503223, 1.00782503223],
              'molecular_charge': 0.0,
              'molecular_multiplicity': 1,
              'name': 'H4O2',
              'provenance': {'creator': 'QCElemental',
                             'routine': 'qcelemental.molparse.from_string',
                             'version': 'v0.25.0'},
              'real': [False, False, False, True, True, True],
              'schema_name': 'qcschema_molecule',
              'schema_version': 2,
              'symbols': ['O', 'H', 'H', 'O', 'H', 'H'],
              'validated': True},
 'protocols': {'stdout': True},
 'provenance': {'creator': 'QCElemental', 'routine': 'qcelemental.models.results', 'version': 'v0.25.0'},
 'schema_name': 'qcschema_input',
 'schema_version': 1}
--------------------------------------------------------------------------

Scratch directory: C:\Users\64292\AppData\Local\Temp/

*** tstart() called on Lenovo-Y540-Zoha
*** at Tue Sep 27 18:39:20 2022

   => Loading Basis Set <=

    Name: AUG-CC-PVDZ
    Role: ORBITAL
    Keyword: BASIS
    atoms 1, 4     entry O          line   254 file C:\Users\64292\Anaconda3\envs\qm-tools\lib\share\psi4\basis\aug-cc-pvdz.gbs 
    atoms 2-3, 5-6 entry H          line    40 file C:\Users\64292\Anaconda3\envs\qm-tools\lib\share\psi4\basis\aug-cc-pvdz.gbs 


         ---------------------------------------------------------
                                   SCF
               by Justin Turney, Rob Parrish, Andy Simmonett
                          and Daniel G. A. Smith
                              RHF Reference
                        1 Threads,    476 MiB Core
         ---------------------------------------------------------

  ==> Geometry <==

    Molecular point group: c1
    Full point group: C1

    Geometry (in Bohr), charge = 0, multiplicity = 1:

       Center              X                  Y                   Z               Mass       
    ------------   -----------------  -----------------  -----------------  -----------------
      Gh(O)           0.000000000000    -0.051183389256    -2.738104818040    15.994914619570
      Gh(H)           0.000000000000    -0.051183389256    -0.848378692582     1.007825032230
      Gh(H)           0.000000000000     1.778185228229    -3.211893051958     1.007825032230
         O            0.000000000000    -0.051183389256     2.553128333242    15.994914619570
         H           -1.417294594093     0.767092026165     3.497991395971     1.007825032230
         H            1.417294594093    -0.869458804677     3.497991395971     1.007825032230

  Running in c1 symmetry.

  Rotational constants: A =      7.04943  B =      0.22975  C =      0.22570 [cm^-1]
  Rotational constants: A = 211336.64462  B =   6887.66635  C =   6766.42878 [MHz]
  Nuclear repulsion =    8.772355975749338

  Charge       = 0
  Multiplicity = 1
  Electrons    = 10
  Nalpha       = 5
  Nbeta        = 5

  ==> Algorithm <==

  SCF Algorithm Type is DF.
  DIIS enabled.
  MOM disabled.
  Fractional occupation disabled.
  Guess Type is SAD.
  Energy threshold   = 1.00e-06
  Density threshold  = 1.00e-06
  Integral threshold = 1.00e-12

  ==> Primary Basis <==

  Basis Set: AUG-CC-PVDZ
    Blend: AUG-CC-PVDZ
    Number of shells: 38
    Number of basis functions: 82
    Number of Cartesian functions: 86
    Spherical Harmonics?: true
    Max angular momentum: 2

   => Loading Basis Set <=

    Name: (AUG-CC-PVDZ AUX)
    Role: JKFIT
    Keyword: DF_BASIS_SCF
    atoms 1, 4     entry O          line   270 file C:\Users\64292\Anaconda3\envs\qm-tools\lib\share\psi4\basis\aug-cc-pvdz-jkfit.gbs 
    atoms 2-3, 5-6 entry H          line    70 file C:\Users\64292\Anaconda3\envs\qm-tools\lib\share\psi4\basis\aug-cc-pvdz-jkfit.gbs 

  ==> Integral Setup <==

  DFHelper Memory: AOs need 0.017 GiB; user supplied 0.349 GiB. Using in-core AOs.

  ==> MemDFJK: Density-Fitted J/K Matrices <==

    J tasked:                   Yes
    K tasked:                   Yes
    wK tasked:                   No
    OpenMP threads:               1
    Memory [MiB]:               357
    Algorithm:                 Core
    Schwarz Cutoff:           1E-12
    Mask sparsity (%):       0.0000
    Fitting Condition:        1E-10

   => Auxiliary Basis Set <=

  Basis Set: (AUG-CC-PVDZ AUX)
    Blend: AUG-CC-PVDZ-JKFIT
    Number of shells: 104
    Number of basis functions: 300
    Number of Cartesian functions: 342
    Spherical Harmonics?: true
    Max angular momentum: 3

  Minimum eigenvalue in the overlap matrix is 1.9554775289E-03.
  Reciprocal condition number of the overlap matrix is 2.5695947454E-04.
    Using symmetric orthogonalization.

  ==> Pre-Iterations <==

  SCF Guess: Superposition of Atomic Densities via on-the-fly atomic UHF (no occupation information).

   -------------------------
    Irrep   Nso     Nmo    
   -------------------------
     A         82      82 
   -------------------------
    Total      82      82
   -------------------------

  ==> Iterations <==

                           Total Energy        Delta E     RMS |[F,P]|

   @DF-RHF iter SAD:   -75.40236270894033   -7.54024e+01   0.00000e+00 
   @DF-RHF iter   1:   -75.94525006393353   -5.42887e-01   5.51129e-03 DIIS/ADIIS
   @DF-RHF iter   2:   -75.99645362189524   -5.12036e-02   3.73418e-03 DIIS/ADIIS
   @DF-RHF iter   3:   -76.02954425558806   -3.30906e-02   2.78997e-04 DIIS/ADIIS
   @DF-RHF iter   4:   -76.03001509589065   -4.70840e-04   6.68226e-05 DIIS
   @DF-RHF iter   5:   -76.03004776891355   -3.26730e-05   1.63077e-05 DIIS
   @DF-RHF iter   6:   -76.03005085003980   -3.08113e-06   3.50636e-06 DIIS
   @DF-RHF iter   7:   -76.03005100595178   -1.55912e-07   6.45556e-07 DIIS
  Energy and wave function converged.


  ==> Post-Iterations <==

    Orbital Energies [Eh]
    ---------------------

    Doubly Occupied:                                                      

       1A    -20.575888     2A     -1.325797     3A     -0.721114  
       4A     -0.548178     5A     -0.500581  

    Virtual:                                                              

       6A      0.032424     7A      0.054625     8A      0.056481  
       9A      0.081366    10A      0.167074    11A      0.174440  
      12A      0.182147    13A      0.198616    14A      0.213193  
      15A      0.223699    16A      0.243777    17A      0.253665  
      18A      0.322337    19A      0.323808    20A      0.368666  
      21A      0.405229    22A      0.443452    23A      0.454952  
      24A      0.473458    25A      0.510870    26A      0.529521  
      27A      0.538428    28A      0.554578    29A      0.574952  
      30A      0.631303    31A      0.656012    32A      0.666666  
      33A      0.723503    34A      0.870759    35A      0.884279  
      36A      0.958688    37A      0.971951    38A      1.139629  
      39A      1.150506    40A      1.185838    41A      1.207688  
      42A      1.224660    43A      1.290951    44A      1.340177  
      45A      1.415052    46A      1.425865    47A      1.449816  
      48A      1.523665    49A      1.578007    50A      1.600954  
      51A      1.773779    52A      1.995792    53A      2.050726  
      54A      2.060142    55A      2.184151    56A      2.374935  
      57A      2.386522    58A      2.418411    59A      2.479644  
      60A      2.518930    61A      2.556551    62A      2.694586  
      63A      2.854839    64A      2.917248    65A      2.958201  
      66A      3.454096    67A      3.701215    68A      3.746052  
      69A      3.847531    70A      3.916082    71A      4.109708  
      72A      4.149472    73A      4.204428    74A      4.917165  
      75A      4.964756    76A      5.006789    77A      5.195677  
      78A      5.498328    79A      5.710667    80A      6.506059  
      81A      6.967728    82A     33.579572  

    Final Occupation by Irrep:
              A 
    DOCC [     5 ]

  @DF-RHF Final Energy:   -76.03005100595178

   => Energetics <=

    Nuclear Repulsion Energy =              8.7723559757493383
    One-Electron Energy =                -122.2616624103650622
    Two-Electron Energy =                  37.4592554286639512
    Total Energy =                        -76.0300510059517762

Computation Completed


Properties will be evaluated at   0.000000,   0.000000,   0.000000 [a0]

Properties computed using the SCF density matrix


 Multipole Moments:

 ------------------------------------------------------------------------------------
     Multipole            Electronic (a.u.)      Nuclear  (a.u.)        Total (a.u.)
 ------------------------------------------------------------------------------------

 L = 1.  Multiply by 2.5417464519 to convert [e a0] to [Debye]
 Dipole X            :         -0.0000991           -0.0000000           -0.0000991
 Dipole Y            :          0.5114901           -0.5118339           -0.0003438
 Dipole Z            :        -26.7372274           27.4210095            0.6837821
 Magnitude           :                                                    0.6837821

 ------------------------------------------------------------------------------------

*** tstop() called on Lenovo-Y540-Zoha at Tue Sep 27 18:39:21 2022
Module time:
	user time   =        nan seconds =        nan minutes
	system time =        nan seconds =        nan minutes
	total time  =          1 seconds =       0.02 minutes
Total time:
	user time   =        nan seconds =        nan minutes
	system time =        nan seconds =        nan minutes
	total time  =        780 seconds =      13.00 minutes

    Psi4 stopped on: Tuesday, 27 September 2022 06:39PM
    Psi4 wall time for execution: 0:00:01.01


    -----------------------------------------------------------------------
          Psi4: An Open-Source Ab Initio Electronic Structure Package
                               Psi4 1.6.1 release

                         Git: Rev {HEAD} 5b9f6e3 


    D. G. A. Smith, L. A. Burns, A. C. Simmonett, R. M. Parrish,
    M. C. Schieber, R. Galvelis, P. Kraus, H. Kruse, R. Di Remigio,
    A. Alenaizan, A. M. James, S. Lehtola, J. P. Misiewicz, M. Scheurer,
    R. A. Shaw, J. B. Schriber, Y. Xie, Z. L. Glick, D. A. Sirianni,
    J. S. O'Brien, J. M. Waldrop, A. Kumar, E. G. Hohenstein,
    B. P. Pritchard, B. R. Brooks, H. F. Schaefer III, A. Yu. Sokolov,
    K. Patkowski, A. E. DePrince III, U. Bozkaya, R. A. King,
    F. A. Evangelista, J. M. Turney, T. D. Crawford, C. D. Sherrill,
    J. Chem. Phys. 152(18) 184108 (2020). https://doi.org/10.1063/5.0006002

                            Additional Code Authors
    E. T. Seidl, C. L. Janssen, E. F. Valeev, M. L. Leininger,
    J. F. Gonthier, R. M. Richard, H. R. McAlexander, M. Saitow, X. Wang,
    P. Verma, M. H. Lechner, and A. Jiang

             Previous Authors, Complete List of Code Contributors,
                       and Citations for Specific Modules
    https://github.com/psi4/psi4/blob/master/codemeta.json
    https://github.com/psi4/psi4/graphs/contributors
    http://psicode.org/psi4manual/master/introduction.html#citing-psifour

    -----------------------------------------------------------------------


    Psi4 started on: Tuesday, 27 September 2022 06:25PM

    Process ID: 10544
    Host:       Lenovo-Y540-Zoha
    PSIDATADIR: C:\Users\64292\Anaconda3\envs\qm-tools\lib\share\psi4
    Memory:     476.8 MiB
    Threads:    1
    
  ==> Input QCSchema <==

--------------------------------------------------------------------------
{'driver': 'energy',
 'extras': {'psiapi': True, 'wfn_qcvars_only': True},
 'id': None,
 'keywords': {'function_kwargs': {}},
 'model': {'basis': 'aug-cc-pvdz', 'method': 'scf'},
 'molecule': {'atom_labels': ['1', '2', '3', '5', '6', '7'],
              'atomic_numbers': [8, 1, 1, 8, 1, 1],
              'fix_com': True,
              'fix_orientation': True,
              'fragment_charges': [0.0, 0.0],
              'fragment_multiplicities': [1, 1],
              'fragments': [[0, 1, 2], [3, 4, 5]],
              'geometry': [3.6985726236876735e-17, -0.051183389255754747, -2.7381048180397762, 3.6985726236876735e-17,
                           -0.051183389255754747, -0.8483786925819481, 3.6985726236876735e-17, 1.7781852282291912,
                           -3.211893051957708, 3.6985726236876735e-17, -0.051183389255754747, 2.5531283332421424,
                           -1.4172945940933719, 0.7670920261650536, 3.4979913959710567, 1.4172945940933706,
                           -0.8694588046765652, 3.4979913959710567],
              'mass_numbers': [16, 1, 1, 16, 1, 1],
              'masses': [15.99491461957, 1.00782503223, 1.00782503223, 15.99491461957, 1.00782503223, 1.00782503223],
              'molecular_charge': 0.0,
              'molecular_multiplicity': 1,
              'name': 'H4O2',
              'provenance': {'creator': 'QCElemental',
                             'routine': 'qcelemental.molparse.from_string',
                             'version': 'v0.25.0'},
              'real': [True, True, True, False, False, False],
              'schema_name': 'qcschema_molecule',
              'schema_version': 2,
              'symbols': ['O', 'H', 'H', 'O', 'H', 'H'],
              'validated': True},
 'protocols': {'stdout': True},
 'provenance': {'creator': 'QCElemental', 'routine': 'qcelemental.models.results', 'version': 'v0.25.0'},
 'schema_name': 'qcschema_input',
 'schema_version': 1}
--------------------------------------------------------------------------

Scratch directory: C:\Users\64292\AppData\Local\Temp/

*** tstart() called on Lenovo-Y540-Zoha
*** at Tue Sep 27 18:39:21 2022

   => Loading Basis Set <=

    Name: AUG-CC-PVDZ
    Role: ORBITAL
    Keyword: BASIS
    atoms 1, 4     entry O          line   254 file C:\Users\64292\Anaconda3\envs\qm-tools\lib\share\psi4\basis\aug-cc-pvdz.gbs 
    atoms 2-3, 5-6 entry H          line    40 file C:\Users\64292\Anaconda3\envs\qm-tools\lib\share\psi4\basis\aug-cc-pvdz.gbs 


         ---------------------------------------------------------
                                   SCF
               by Justin Turney, Rob Parrish, Andy Simmonett
                          and Daniel G. A. Smith
                              RHF Reference
                        1 Threads,    476 MiB Core
         ---------------------------------------------------------

  ==> Geometry <==

    Molecular point group: c1
    Full point group: C1

    Geometry (in Bohr), charge = 0, multiplicity = 1:

       Center              X                  Y                   Z               Mass       
    ------------   -----------------  -----------------  -----------------  -----------------
         O            0.000000000000    -0.051183389256    -2.738104818040    15.994914619570
         H            0.000000000000    -0.051183389256    -0.848378692582     1.007825032230
         H            0.000000000000     1.778185228229    -3.211893051958     1.007825032230
      Gh(O)           0.000000000000    -0.051183389256     2.553128333242    15.994914619570
      Gh(H)          -1.417294594093     0.767092026165     3.497991395971     1.007825032230
      Gh(H)           1.417294594093    -0.869458804677     3.497991395971     1.007825032230

  Running in c1 symmetry.

  Rotational constants: A =      7.04943  B =      0.22975  C =      0.22570 [cm^-1]
  Rotational constants: A = 211336.64462  B =   6887.66635  C =   6766.42878 [MHz]
  Nuclear repulsion =    8.801420354575150

  Charge       = 0
  Multiplicity = 1
  Electrons    = 10
  Nalpha       = 5
  Nbeta        = 5

  ==> Algorithm <==

  SCF Algorithm Type is DF.
  DIIS enabled.
  MOM disabled.
  Fractional occupation disabled.
  Guess Type is SAD.
  Energy threshold   = 1.00e-06
  Density threshold  = 1.00e-06
  Integral threshold = 1.00e-12

  ==> Primary Basis <==

  Basis Set: AUG-CC-PVDZ
    Blend: AUG-CC-PVDZ
    Number of shells: 38
    Number of basis functions: 82
    Number of Cartesian functions: 86
    Spherical Harmonics?: true
    Max angular momentum: 2

   => Loading Basis Set <=

    Name: (AUG-CC-PVDZ AUX)
    Role: JKFIT
    Keyword: DF_BASIS_SCF
    atoms 1, 4     entry O          line   270 file C:\Users\64292\Anaconda3\envs\qm-tools\lib\share\psi4\basis\aug-cc-pvdz-jkfit.gbs 
    atoms 2-3, 5-6 entry H          line    70 file C:\Users\64292\Anaconda3\envs\qm-tools\lib\share\psi4\basis\aug-cc-pvdz-jkfit.gbs 

  ==> Integral Setup <==

  DFHelper Memory: AOs need 0.017 GiB; user supplied 0.349 GiB. Using in-core AOs.

  ==> MemDFJK: Density-Fitted J/K Matrices <==

    J tasked:                   Yes
    K tasked:                   Yes
    wK tasked:                   No
    OpenMP threads:               1
    Memory [MiB]:               357
    Algorithm:                 Core
    Schwarz Cutoff:           1E-12
    Mask sparsity (%):       0.0000
    Fitting Condition:        1E-10

   => Auxiliary Basis Set <=

  Basis Set: (AUG-CC-PVDZ AUX)
    Blend: AUG-CC-PVDZ-JKFIT
    Number of shells: 104
    Number of basis functions: 300
    Number of Cartesian functions: 342
    Spherical Harmonics?: true
    Max angular momentum: 3

  Minimum eigenvalue in the overlap matrix is 1.9554775289E-03.
  Reciprocal condition number of the overlap matrix is 2.5695947454E-04.
    Using symmetric orthogonalization.

  ==> Pre-Iterations <==

  SCF Guess: Superposition of Atomic Densities via on-the-fly atomic UHF (no occupation information).

   -------------------------
    Irrep   Nso     Nmo    
   -------------------------
     A         82      82 
   -------------------------
    Total      82      82
   -------------------------

  ==> Iterations <==

                           Total Energy        Delta E     RMS |[F,P]|

   @DF-RHF iter SAD:   -75.41487081651121   -7.54149e+01   0.00000e+00 
   @DF-RHF iter   1:   -75.94943346766439   -5.34563e-01   5.50732e-03 DIIS/ADIIS
   @DF-RHF iter   2:   -76.00131568619264   -5.18822e-02   3.77751e-03 DIIS/ADIIS
   @DF-RHF iter   3:   -76.03527965205836   -3.39640e-02   2.81145e-04 DIIS/ADIIS
   @DF-RHF iter   4:   -76.03573306427215   -4.53412e-04   6.60462e-05 DIIS
   @DF-RHF iter   5:   -76.03576324229377   -3.01780e-05   1.56515e-05 DIIS
   @DF-RHF iter   6:   -76.03576582158911   -2.57930e-06   3.09874e-06 DIIS
   @DF-RHF iter   7:   -76.03576592545475   -1.03866e-07   5.06453e-07 DIIS
  Energy and wave function converged.


  ==> Post-Iterations <==

    Orbital Energies [Eh]
    ---------------------

    Doubly Occupied:                                                      

       1A    -20.584219     2A     -1.335633     3A     -0.696483  
       4A     -0.577348     5A     -0.506058  

    Virtual:                                                              

       6A      0.024968     7A      0.050657     8A      0.058448  
       9A      0.080532    10A      0.134974    11A      0.149480  
      12A      0.185803    13A      0.195184    14A      0.221153  
      15A      0.226750    16A      0.231161    17A      0.273041  
      18A      0.332728    19A      0.355663    20A      0.373737  
      21A      0.395073    22A      0.398000    23A      0.422107  
      24A      0.424005    25A      0.477939    26A      0.481341  
      27A      0.490299    28A      0.534004    29A      0.565546  
      30A      0.586653    31A      0.626276    32A      0.652033  
      33A      0.747635    34A      0.870444    35A      0.919832  
      36A      0.985854    37A      1.044328    38A      1.111968  
      39A      1.160261    40A      1.177704    41A      1.186332  
      42A      1.201796    43A      1.282255    44A      1.295911  
      45A      1.307973    46A      1.331386    47A      1.415270  
      48A      1.464242    49A      1.510769    50A      1.593425  
      51A      1.762953    52A      1.984409    53A      2.003377  
      54A      2.067783    55A      2.090451    56A      2.351491  
      57A      2.379900    58A      2.384021    59A      2.400794  
      60A      2.459827    61A      2.539065    62A      2.665733  
      63A      2.721657    64A      2.976457    65A      2.995064  
      66A      3.488670    67A      3.676727    68A      3.705786  
      69A      3.738170    70A      3.975154    71A      4.000227  
      72A      4.066389    73A      4.335338    74A      4.929191  
      75A      4.933732    76A      5.048385    77A      5.325340  
      78A      5.393999    79A      5.612838    80A      6.463942  
      81A      6.803535    82A     33.532201  

    Final Occupation by Irrep:
              A 
    DOCC [     5 ]

  @DF-RHF Final Energy:   -76.03576592545475

   => Energetics <=

    Nuclear Repulsion Energy =              8.8014203545751499
    One-Electron Energy =                -122.2748693846673547
    Two-Electron Energy =                  37.4376831046374505
    Total Energy =                        -76.0357659254547684

Computation Completed


Properties will be evaluated at   0.000000,   0.000000,   0.000000 [a0]

Properties computed using the SCF density matrix


 Multipole Moments:

 ------------------------------------------------------------------------------------
     Multipole            Electronic (a.u.)      Nuclear  (a.u.)        Total (a.u.)
 ------------------------------------------------------------------------------------

 L = 1.  Multiply by 2.5417464519 to convert [e a0] to [Debye]
 Dipole X            :         -0.0001524            0.0000000           -0.0001524
 Dipole Y            :         -0.6856253            1.3175347            0.6319094
 Dipole Z            :         26.4539081          -25.9651103            0.4887978
 Magnitude           :                                                    0.7988948

 ------------------------------------------------------------------------------------

*** tstop() called on Lenovo-Y540-Zoha at Tue Sep 27 18:39:22 2022
Module time:
	user time   =        nan seconds =        nan minutes
	system time =        nan seconds =        nan minutes
	total time  =          1 seconds =       0.02 minutes
Total time:
	user time   =        nan seconds =        nan minutes
	system time =        nan seconds =        nan minutes
	total time  =        781 seconds =      13.02 minutes

    Psi4 stopped on: Tuesday, 27 September 2022 06:39PM
    Psi4 wall time for execution: 0:00:00.98


    -----------------------------------------------------------------------
          Psi4: An Open-Source Ab Initio Electronic Structure Package
                               Psi4 1.6.1 release

                         Git: Rev {HEAD} 5b9f6e3 


    D. G. A. Smith, L. A. Burns, A. C. Simmonett, R. M. Parrish,
    M. C. Schieber, R. Galvelis, P. Kraus, H. Kruse, R. Di Remigio,
    A. Alenaizan, A. M. James, S. Lehtola, J. P. Misiewicz, M. Scheurer,
    R. A. Shaw, J. B. Schriber, Y. Xie, Z. L. Glick, D. A. Sirianni,
    J. S. O'Brien, J. M. Waldrop, A. Kumar, E. G. Hohenstein,
    B. P. Pritchard, B. R. Brooks, H. F. Schaefer III, A. Yu. Sokolov,
    K. Patkowski, A. E. DePrince III, U. Bozkaya, R. A. King,
    F. A. Evangelista, J. M. Turney, T. D. Crawford, C. D. Sherrill,
    J. Chem. Phys. 152(18) 184108 (2020). https://doi.org/10.1063/5.0006002

                            Additional Code Authors
    E. T. Seidl, C. L. Janssen, E. F. Valeev, M. L. Leininger,
    J. F. Gonthier, R. M. Richard, H. R. McAlexander, M. Saitow, X. Wang,
    P. Verma, M. H. Lechner, and A. Jiang

             Previous Authors, Complete List of Code Contributors,
                       and Citations for Specific Modules
    https://github.com/psi4/psi4/blob/master/codemeta.json
    https://github.com/psi4/psi4/graphs/contributors
    http://psicode.org/psi4manual/master/introduction.html#citing-psifour

    -----------------------------------------------------------------------


    Psi4 started on: Tuesday, 27 September 2022 06:25PM

    Process ID: 10544
    Host:       Lenovo-Y540-Zoha
    PSIDATADIR: C:\Users\64292\Anaconda3\envs\qm-tools\lib\share\psi4
    Memory:     476.8 MiB
    Threads:    1
    
  ==> Input QCSchema <==

--------------------------------------------------------------------------
{'driver': 'energy',
 'extras': {'psiapi': True, 'wfn_qcvars_only': True},
 'id': None,
 'keywords': {'function_kwargs': {}},
 'model': {'basis': 'aug-cc-pvdz', 'method': 'scf'},
 'molecule': {'atom_labels': ['1', '2', '3', '5', '6', '7'],
              'atomic_numbers': [8, 1, 1, 8, 1, 1],
              'fix_com': True,
              'fix_orientation': True,
              'fragment_charges': [0.0, 0.0],
              'fragment_multiplicities': [1, 1],
              'fragments': [[0, 1, 2], [3, 4, 5]],
              'geometry': [3.6985726236876735e-17, -0.051183389255754747, -2.7381048180397762, 3.6985726236876735e-17,
                           -0.051183389255754747, -0.8483786925819481, 3.6985726236876735e-17, 1.7781852282291912,
                           -3.211893051957708, 3.6985726236876735e-17, -0.051183389255754747, 2.5531283332421424,
                           -1.4172945940933719, 0.7670920261650536, 3.4979913959710567, 1.4172945940933706,
                           -0.8694588046765652, 3.4979913959710567],
              'mass_numbers': [16, 1, 1, 16, 1, 1],
              'masses': [15.99491461957, 1.00782503223, 1.00782503223, 15.99491461957, 1.00782503223, 1.00782503223],
              'molecular_charge': 0.0,
              'molecular_multiplicity': 1,
              'name': 'H4O2',
              'provenance': {'creator': 'QCElemental',
                             'routine': 'qcelemental.molparse.from_string',
                             'version': 'v0.25.0'},
              'real': [True, True, True, True, True, True],
              'schema_name': 'qcschema_molecule',
              'schema_version': 2,
              'symbols': ['O', 'H', 'H', 'O', 'H', 'H'],
              'validated': True},
 'protocols': {'stdout': True},
 'provenance': {'creator': 'QCElemental', 'routine': 'qcelemental.models.results', 'version': 'v0.25.0'},
 'schema_name': 'qcschema_input',
 'schema_version': 1}
--------------------------------------------------------------------------

Scratch directory: C:\Users\64292\AppData\Local\Temp/

*** tstart() called on Lenovo-Y540-Zoha
*** at Tue Sep 27 18:39:22 2022

   => Loading Basis Set <=

    Name: AUG-CC-PVDZ
    Role: ORBITAL
    Keyword: BASIS
    atoms 1, 4     entry O          line   254 file C:\Users\64292\Anaconda3\envs\qm-tools\lib\share\psi4\basis\aug-cc-pvdz.gbs 
    atoms 2-3, 5-6 entry H          line    40 file C:\Users\64292\Anaconda3\envs\qm-tools\lib\share\psi4\basis\aug-cc-pvdz.gbs 


         ---------------------------------------------------------
                                   SCF
               by Justin Turney, Rob Parrish, Andy Simmonett
                          and Daniel G. A. Smith
                              RHF Reference
                        1 Threads,    476 MiB Core
         ---------------------------------------------------------

  ==> Geometry <==

    Molecular point group: c1
    Full point group: C1

    Geometry (in Bohr), charge = 0, multiplicity = 1:

       Center              X                  Y                   Z               Mass       
    ------------   -----------------  -----------------  -----------------  -----------------
         O            0.000000000000    -0.051183389256    -2.738104818040    15.994914619570
         H            0.000000000000    -0.051183389256    -0.848378692582     1.007825032230
         H            0.000000000000     1.778185228229    -3.211893051958     1.007825032230
         O            0.000000000000    -0.051183389256     2.553128333242    15.994914619570
         H           -1.417294594093     0.767092026165     3.497991395971     1.007825032230
         H            1.417294594093    -0.869458804677     3.497991395971     1.007825032230

  Running in c1 symmetry.

  Rotational constants: A =      7.04943  B =      0.22975  C =      0.22570 [cm^-1]
  Rotational constants: A = 211336.64462  B =   6887.66635  C =   6766.42878 [MHz]
  Nuclear repulsion =   36.536437081195622

  Charge       = 0
  Multiplicity = 1
  Electrons    = 20
  Nalpha       = 10
  Nbeta        = 10

  ==> Algorithm <==

  SCF Algorithm Type is DF.
  DIIS enabled.
  MOM disabled.
  Fractional occupation disabled.
  Guess Type is SAD.
  Energy threshold   = 1.00e-06
  Density threshold  = 1.00e-06
  Integral threshold = 1.00e-12

  ==> Primary Basis <==

  Basis Set: AUG-CC-PVDZ
    Blend: AUG-CC-PVDZ
    Number of shells: 38
    Number of basis functions: 82
    Number of Cartesian functions: 86
    Spherical Harmonics?: true
    Max angular momentum: 2

   => Loading Basis Set <=

    Name: (AUG-CC-PVDZ AUX)
    Role: JKFIT
    Keyword: DF_BASIS_SCF
    atoms 1, 4     entry O          line   270 file C:\Users\64292\Anaconda3\envs\qm-tools\lib\share\psi4\basis\aug-cc-pvdz-jkfit.gbs 
    atoms 2-3, 5-6 entry H          line    70 file C:\Users\64292\Anaconda3\envs\qm-tools\lib\share\psi4\basis\aug-cc-pvdz-jkfit.gbs 

  ==> Integral Setup <==

  DFHelper Memory: AOs need 0.017 GiB; user supplied 0.349 GiB. Using in-core AOs.

  ==> MemDFJK: Density-Fitted J/K Matrices <==

    J tasked:                   Yes
    K tasked:                   Yes
    wK tasked:                   No
    OpenMP threads:               1
    Memory [MiB]:               357
    Algorithm:                 Core
    Schwarz Cutoff:           1E-12
    Mask sparsity (%):       0.0000
    Fitting Condition:        1E-10

   => Auxiliary Basis Set <=

  Basis Set: (AUG-CC-PVDZ AUX)
    Blend: AUG-CC-PVDZ-JKFIT
    Number of shells: 104
    Number of basis functions: 300
    Number of Cartesian functions: 342
    Spherical Harmonics?: true
    Max angular momentum: 3

  Minimum eigenvalue in the overlap matrix is 1.9554775289E-03.
  Reciprocal condition number of the overlap matrix is 2.5695947454E-04.
    Using symmetric orthogonalization.

  ==> Pre-Iterations <==

  SCF Guess: Superposition of Atomic Densities via on-the-fly atomic UHF (no occupation information).

   -------------------------
    Irrep   Nso     Nmo    
   -------------------------
     A         82      82 
   -------------------------
    Total      82      82
   -------------------------

  ==> Iterations <==

                           Total Energy        Delta E     RMS |[F,P]|

   @DF-RHF iter SAD:  -150.92759234903602   -1.50928e+02   0.00000e+00 
   @DF-RHF iter   1:  -151.91346962833725   -9.85877e-01   7.46535e-03 DIIS/ADIIS
   @DF-RHF iter   2:  -152.01403330074425   -1.00564e-01   4.86156e-03 DIIS/ADIIS
   @DF-RHF iter   3:  -152.06990067059061   -5.58674e-02   4.19257e-04 DIIS/ADIIS
   @DF-RHF iter   4:  -152.07089849595553   -9.97825e-04   9.55827e-05 DIIS
   @DF-RHF iter   5:  -152.07095544464815   -5.69487e-05   3.76274e-05 DIIS
   @DF-RHF iter   6:  -152.07096251520852   -7.07056e-06   1.28426e-05 DIIS
   @DF-RHF iter   7:  -152.07096364794276   -1.13273e-06   2.46283e-06 DIIS
   @DF-RHF iter   8:  -152.07096371465130   -6.67085e-08   4.84232e-07 DIIS
  Energy and wave function converged.


  ==> Post-Iterations <==

    Orbital Energies [Eh]
    ---------------------

    Doubly Occupied:                                                      

       1A    -20.605919     2A    -20.540824     3A     -1.360848  
       4A     -1.296835     5A     -0.752684     6A     -0.674752  
       7A     -0.587651     8A     -0.535365     9A     -0.527434  
      10A     -0.467279  

    Virtual:                                                              

      11A      0.024584    12A      0.049847    13A      0.058807  
      14A      0.089431    15A      0.173385    16A      0.180116  
      17A      0.203751    18A      0.212562    19A      0.227461  
      20A      0.237946    21A      0.248531    22A      0.284266  
      23A      0.305913    24A      0.311566    25A      0.349034  
      26A      0.363496    27A      0.413357    28A      0.428548  
      29A      0.469667    30A      0.497773    31A      0.516567  
      32A      0.540938    33A      0.550170    34A      0.602807  
      35A      0.628195    36A      0.646430    37A      0.674290  
      38A      0.783694    39A      0.846173    40A      0.861641  
      41A      0.947753    42A      0.974971    43A      1.116846  
      44A      1.138830    45A      1.145264    46A      1.190860  
      47A      1.222929    48A      1.230266    49A      1.359284  
      50A      1.436714    51A      1.473097    52A      1.521124  
      53A      1.550583    54A      1.637895    55A      1.647430  
      56A      1.920890    57A      2.002858    58A      2.020349  
      59A      2.034955    60A      2.053077    61A      2.064106  
      62A      2.199450    63A      2.402034    64A      2.411660  
      65A      2.470872    66A      2.499630    67A      2.545202  
      68A      2.762244    69A      2.835838    70A      2.847212  
      71A      3.016808    72A      3.056438    73A      3.668855  
      74A      3.706214    75A      3.713183    76A      3.744125  
      77A      3.776936    78A      3.837020    79A      4.096924  
      80A      4.121782    81A      4.171681    82A      4.389958  

    Final Occupation by Irrep:
              A 
    DOCC [    10 ]

  @DF-RHF Final Energy:  -152.07096371465130

   => Energetics <=

    Nuclear Repulsion Energy =             36.5364370811956221
    One-Electron Energy =                -282.5156050518759798
    Two-Electron Energy =                  93.9082042560290517
    Total Energy =                       -152.0709637146512989

Computation Completed


Properties will be evaluated at   0.000000,   0.000000,   0.000000 [a0]

Properties computed using the SCF density matrix


 Multipole Moments:

 ------------------------------------------------------------------------------------
     Multipole            Electronic (a.u.)      Nuclear  (a.u.)        Total (a.u.)
 ------------------------------------------------------------------------------------

 L = 1.  Multiply by 2.5417464519 to convert [e a0] to [Debye]
 Dipole X            :          0.0015641           -0.0000000            0.0015641
 Dipole Y            :         -0.2056872            0.8057008            0.6000136
 Dipole Z            :          0.0291419            1.4558992            1.4850411
 Magnitude           :                                                    1.6016760

 ------------------------------------------------------------------------------------

*** tstop() called on Lenovo-Y540-Zoha at Tue Sep 27 18:39:23 2022
Module time:
	user time   =        nan seconds =        nan minutes
	system time =        nan seconds =        nan minutes
	total time  =          1 seconds =       0.02 minutes
Total time:
	user time   =        nan seconds =        nan minutes
	system time =        nan seconds =        nan minutes
	total time  =        782 seconds =      13.03 minutes

    Psi4 stopped on: Tuesday, 27 September 2022 06:39PM
    Psi4 wall time for execution: 0:00:01.02


  //>>>>>>>>>>>>>>>>>>>>>>>>>>>>>>>>>>>//
  //          ManyBody Results         //
  //<<<<<<<<<<<<<<<<<<<<<<<<<<<<<<<<<<<//


   ==> N-Body: Counterpoise Corrected (CP) energies <==

        n-Body     Total Energy            Interaction Energy                          N-body Contribution to Interaction Energy
                   [Eh]                    [Eh]                  [kcal/mol]            [Eh]                  [kcal/mol]
             1  N/A                         0.000000000000        0.000000000000        0.000000000000        0.000000000000
  FULL/RTN   2  N/A                        -0.005146783245       -3.229655245581       -0.005146783245       -3.229655245581

