
Scratch directory: C:\Users\64292\AppData\Local\Temp/

  //>>>>>>>>>>>>>>>>>>>>>>>>>>>>>>>>>>>>>//
  // ManyBody Setup: N-Body Levels [1, 2]//
  //<<<<<<<<<<<<<<<<<<<<<<<<<<<<<<<<<<<<<//

        Number of 1-body computations:     2
        Number of 2-body computations:     1

    -----------------------------------------------------------------------
          Psi4: An Open-Source Ab Initio Electronic Structure Package
                               Psi4 1.6.1 release

                         Git: Rev {HEAD} 5b9f6e3 


    D. G. A. Smith, L. A. Burns, A. C. Simmonett, R. M. Parrish,
    M. C. Schieber, R. Galvelis, P. Kraus, H. Kruse, R. Di Remigio,
    A. Alenaizan, A. M. James, S. Lehtola, J. P. Misiewicz, M. Scheurer,
    R. A. Shaw, J. B. Schriber, Y. Xie, Z. L. Glick, D. A. Sirianni,
    J. S. O'Brien, J. M. Waldrop, A. Kumar, E. G. Hohenstein,
    B. P. Pritchard, B. R. Brooks, H. F. Schaefer III, A. Yu. Sokolov,
    K. Patkowski, A. E. DePrince III, U. Bozkaya, R. A. King,
    F. A. Evangelista, J. M. Turney, T. D. Crawford, C. D. Sherrill,
    J. Chem. Phys. 152(18) 184108 (2020). https://doi.org/10.1063/5.0006002

                            Additional Code Authors
    E. T. Seidl, C. L. Janssen, E. F. Valeev, M. L. Leininger,
    J. F. Gonthier, R. M. Richard, H. R. McAlexander, M. Saitow, X. Wang,
    P. Verma, M. H. Lechner, and A. Jiang

             Previous Authors, Complete List of Code Contributors,
                       and Citations for Specific Modules
    https://github.com/psi4/psi4/blob/master/codemeta.json
    https://github.com/psi4/psi4/graphs/contributors
    http://psicode.org/psi4manual/master/introduction.html#citing-psifour

    -----------------------------------------------------------------------


    Psi4 started on: Tuesday, 27 September 2022 06:25PM

    Process ID: 10544
    Host:       Lenovo-Y540-Zoha
    PSIDATADIR: C:\Users\64292\Anaconda3\envs\qm-tools\lib\share\psi4
    Memory:     476.8 MiB
    Threads:    1
    
  ==> Input QCSchema <==

--------------------------------------------------------------------------
{'driver': 'energy',
 'extras': {'psiapi': True, 'wfn_qcvars_only': True},
 'id': None,
 'keywords': {'function_kwargs': {}},
 'model': {'basis': 'aug-cc-pvdz', 'method': 'scf'},
 'molecule': {'atom_labels': ['1', '2', '3', '5', '6', '7'],
              'atomic_numbers': [8, 1, 1, 8, 1, 1],
              'fix_com': True,
              'fix_orientation': True,
              'fragment_charges': [0.0, 0.0],
              'fragment_multiplicities': [1, 1],
              'fragments': [[0, 1, 2], [3, 4, 5]],
              'geometry': [3.6985726236876735e-17, -0.05118338925575476, -3.021563736858451, 3.6985726236876735e-17,
                           -0.05118338925575476, -1.131837611400623, 3.6985726236876735e-17, 1.7781852282291912,
                           -3.4953519707763827, 3.6985726236876735e-17, -0.05118338925575476, 2.8365872520608164,
                           0.42357052330016404, -1.6319701028005071, 3.7814503147897303, -0.4235705233001653,
                           1.529603324288996, 3.7814503147897307],
              'mass_numbers': [16, 1, 1, 16, 1, 1],
              'masses': [15.99491461957, 1.00782503223, 1.00782503223, 15.99491461957, 1.00782503223, 1.00782503223],
              'molecular_charge': 0.0,
              'molecular_multiplicity': 1,
              'name': 'H4O2',
              'provenance': {'creator': 'QCElemental',
                             'routine': 'qcelemental.molparse.from_string',
                             'version': 'v0.25.0'},
              'real': [False, False, False, True, True, True],
              'schema_name': 'qcschema_molecule',
              'schema_version': 2,
              'symbols': ['O', 'H', 'H', 'O', 'H', 'H'],
              'validated': True},
 'protocols': {'stdout': True},
 'provenance': {'creator': 'QCElemental', 'routine': 'qcelemental.models.results', 'version': 'v0.25.0'},
 'schema_name': 'qcschema_input',
 'schema_version': 1}
--------------------------------------------------------------------------

Scratch directory: C:\Users\64292\AppData\Local\Temp/

*** tstart() called on Lenovo-Y540-Zoha
*** at Tue Sep 27 18:44:15 2022

   => Loading Basis Set <=

    Name: AUG-CC-PVDZ
    Role: ORBITAL
    Keyword: BASIS
    atoms 1, 4     entry O          line   254 file C:\Users\64292\Anaconda3\envs\qm-tools\lib\share\psi4\basis\aug-cc-pvdz.gbs 
    atoms 2-3, 5-6 entry H          line    40 file C:\Users\64292\Anaconda3\envs\qm-tools\lib\share\psi4\basis\aug-cc-pvdz.gbs 


         ---------------------------------------------------------
                                   SCF
               by Justin Turney, Rob Parrish, Andy Simmonett
                          and Daniel G. A. Smith
                              RHF Reference
                        1 Threads,    476 MiB Core
         ---------------------------------------------------------

  ==> Geometry <==

    Molecular point group: c1
    Full point group: C1

    Geometry (in Bohr), charge = 0, multiplicity = 1:

       Center              X                  Y                   Z               Mass       
    ------------   -----------------  -----------------  -----------------  -----------------
      Gh(O)           0.000000000000    -0.051183389256    -3.021563736858    15.994914619570
      Gh(H)           0.000000000000    -0.051183389256    -1.131837611401     1.007825032230
      Gh(H)           0.000000000000     1.778185228229    -3.495351970776     1.007825032230
         O            0.000000000000    -0.051183389256     2.836587252061    15.994914619570
         H            0.423570523300    -1.631970102801     3.781450314790     1.007825032230
         H           -0.423570523300     1.529603324289     3.781450314790     1.007825032230

  Running in c1 symmetry.

  Rotational constants: A =      7.04707  B =      0.18965  C =      0.18483 [cm^-1]
  Rotational constants: A = 211265.88116  B =   5685.54444  C =   5541.14699 [MHz]
  Nuclear repulsion =    8.772355975749340

  Charge       = 0
  Multiplicity = 1
  Electrons    = 10
  Nalpha       = 5
  Nbeta        = 5

  ==> Algorithm <==

  SCF Algorithm Type is DF.
  DIIS enabled.
  MOM disabled.
  Fractional occupation disabled.
  Guess Type is SAD.
  Energy threshold   = 1.00e-06
  Density threshold  = 1.00e-06
  Integral threshold = 1.00e-12

  ==> Primary Basis <==

  Basis Set: AUG-CC-PVDZ
    Blend: AUG-CC-PVDZ
    Number of shells: 38
    Number of basis functions: 82
    Number of Cartesian functions: 86
    Spherical Harmonics?: true
    Max angular momentum: 2

   => Loading Basis Set <=

    Name: (AUG-CC-PVDZ AUX)
    Role: JKFIT
    Keyword: DF_BASIS_SCF
    atoms 1, 4     entry O          line   270 file C:\Users\64292\Anaconda3\envs\qm-tools\lib\share\psi4\basis\aug-cc-pvdz-jkfit.gbs 
    atoms 2-3, 5-6 entry H          line    70 file C:\Users\64292\Anaconda3\envs\qm-tools\lib\share\psi4\basis\aug-cc-pvdz-jkfit.gbs 

  ==> Integral Setup <==

  DFHelper Memory: AOs need 0.017 GiB; user supplied 0.349 GiB. Using in-core AOs.

  ==> MemDFJK: Density-Fitted J/K Matrices <==

    J tasked:                   Yes
    K tasked:                   Yes
    wK tasked:                   No
    OpenMP threads:               1
    Memory [MiB]:               357
    Algorithm:                 Core
    Schwarz Cutoff:           1E-12
    Mask sparsity (%):       0.0000
    Fitting Condition:        1E-10

   => Auxiliary Basis Set <=

  Basis Set: (AUG-CC-PVDZ AUX)
    Blend: AUG-CC-PVDZ-JKFIT
    Number of shells: 104
    Number of basis functions: 300
    Number of Cartesian functions: 342
    Spherical Harmonics?: true
    Max angular momentum: 3

  Minimum eigenvalue in the overlap matrix is 1.9511042716E-03.
  Reciprocal condition number of the overlap matrix is 2.7094179822E-04.
    Using symmetric orthogonalization.

  ==> Pre-Iterations <==

  SCF Guess: Superposition of Atomic Densities via on-the-fly atomic UHF (no occupation information).

   -------------------------
    Irrep   Nso     Nmo    
   -------------------------
     A         82      82 
   -------------------------
    Total      82      82
   -------------------------

  ==> Iterations <==

                           Total Energy        Delta E     RMS |[F,P]|

   @DF-RHF iter SAD:   -75.40236276382090   -7.54024e+01   0.00000e+00 
   @DF-RHF iter   1:   -75.94511886366209   -5.42756e-01   5.50886e-03 DIIS/ADIIS
   @DF-RHF iter   2:   -75.99630753719930   -5.11887e-02   3.73082e-03 DIIS/ADIIS
   @DF-RHF iter   3:   -76.02940086064319   -3.30933e-02   2.79153e-04 DIIS/ADIIS
   @DF-RHF iter   4:   -76.02987189261314   -4.71032e-04   6.67598e-05 DIIS
   @DF-RHF iter   5:   -76.02990449742606   -3.26048e-05   1.62945e-05 DIIS
   @DF-RHF iter   6:   -76.02990757212001   -3.07469e-06   3.49781e-06 DIIS
   @DF-RHF iter   7:   -76.02990772718204   -1.55062e-07   6.42974e-07 DIIS
  Energy and wave function converged.


  ==> Post-Iterations <==

    Orbital Energies [Eh]
    ---------------------

    Doubly Occupied:                                                      

       1A    -20.575775     2A     -1.325821     3A     -0.721180  
       4A     -0.548238     5A     -0.500665  

    Virtual:                                                              

       6A      0.032614     7A      0.052897     8A      0.056243  
       9A      0.085181    10A      0.157959    11A      0.172979  
      12A      0.181870    13A      0.197939    14A      0.217372  
      15A      0.220636    16A      0.241153    17A      0.250101  
      18A      0.311372    19A      0.328834    20A      0.372268  
      21A      0.405607    22A      0.446690    23A      0.454935  
      24A      0.461960    25A      0.484893    26A      0.519235  
      27A      0.533738    28A      0.541885    29A      0.570370  
      30A      0.627811    31A      0.643345    32A      0.665338  
      33A      0.720194    34A      0.876884    35A      0.891260  
      36A      0.927424    37A      0.943941    38A      1.117893  
      39A      1.145824    40A      1.148198    41A      1.217864  
      42A      1.233356    43A      1.289279    44A      1.337673  
      45A      1.375224    46A      1.403440    47A      1.429659  
      48A      1.467308    49A      1.546046    50A      1.581658  
      51A      1.815491    52A      2.006833    53A      2.047458  
      54A      2.054949    55A      2.121138    56A      2.306197  
      57A      2.373498    58A      2.422611    59A      2.446349  
      60A      2.469665    61A      2.533187    62A      2.604962  
      63A      2.686571    64A      2.858006    65A      2.933541  
      66A      3.429599    67A      3.694743    68A      3.700922  
      69A      3.826778    70A      3.915415    71A      4.081398  
      72A      4.144829    73A      4.191629    74A      4.911502  
      75A      4.958030    76A      4.994514    77A      5.191014  
      78A      5.491591    79A      5.649231    80A      6.439547  
      81A      6.866293    82A     33.569673  

    Final Occupation by Irrep:
              A 
    DOCC [     5 ]

  @DF-RHF Final Energy:   -76.02990772718204

   => Energetics <=

    Nuclear Repulsion Energy =              8.7723559757493401
    One-Electron Energy =                -122.2611328920520037
    Two-Electron Energy =                  37.4588691891206267
    Total Energy =                        -76.0299077271820352

Computation Completed


Properties will be evaluated at   0.000000,   0.000000,   0.000000 [a0]

Properties computed using the SCF density matrix


 Multipole Moments:

 ------------------------------------------------------------------------------------
     Multipole            Electronic (a.u.)      Nuclear  (a.u.)        Total (a.u.)
 ------------------------------------------------------------------------------------

 L = 1.  Multiply by 2.5417464519 to convert [e a0] to [Debye]
 Dipole X            :         -0.0000778           -0.0000000           -0.0000778
 Dipole Y            :          0.5116534           -0.5118339           -0.0001805
 Dipole Z            :        -29.5698016           30.2555986            0.6857970
 Magnitude           :                                                    0.6857971

 ------------------------------------------------------------------------------------

*** tstop() called on Lenovo-Y540-Zoha at Tue Sep 27 18:44:16 2022
Module time:
	user time   =        nan seconds =        nan minutes
	system time =        nan seconds =        nan minutes
	total time  =          1 seconds =       0.02 minutes
Total time:
	user time   =        nan seconds =        nan minutes
	system time =        nan seconds =        nan minutes
	total time  =       1075 seconds =      17.92 minutes

    Psi4 stopped on: Tuesday, 27 September 2022 06:44PM
    Psi4 wall time for execution: 0:00:01.07


    -----------------------------------------------------------------------
          Psi4: An Open-Source Ab Initio Electronic Structure Package
                               Psi4 1.6.1 release

                         Git: Rev {HEAD} 5b9f6e3 


    D. G. A. Smith, L. A. Burns, A. C. Simmonett, R. M. Parrish,
    M. C. Schieber, R. Galvelis, P. Kraus, H. Kruse, R. Di Remigio,
    A. Alenaizan, A. M. James, S. Lehtola, J. P. Misiewicz, M. Scheurer,
    R. A. Shaw, J. B. Schriber, Y. Xie, Z. L. Glick, D. A. Sirianni,
    J. S. O'Brien, J. M. Waldrop, A. Kumar, E. G. Hohenstein,
    B. P. Pritchard, B. R. Brooks, H. F. Schaefer III, A. Yu. Sokolov,
    K. Patkowski, A. E. DePrince III, U. Bozkaya, R. A. King,
    F. A. Evangelista, J. M. Turney, T. D. Crawford, C. D. Sherrill,
    J. Chem. Phys. 152(18) 184108 (2020). https://doi.org/10.1063/5.0006002

                            Additional Code Authors
    E. T. Seidl, C. L. Janssen, E. F. Valeev, M. L. Leininger,
    J. F. Gonthier, R. M. Richard, H. R. McAlexander, M. Saitow, X. Wang,
    P. Verma, M. H. Lechner, and A. Jiang

             Previous Authors, Complete List of Code Contributors,
                       and Citations for Specific Modules
    https://github.com/psi4/psi4/blob/master/codemeta.json
    https://github.com/psi4/psi4/graphs/contributors
    http://psicode.org/psi4manual/master/introduction.html#citing-psifour

    -----------------------------------------------------------------------


    Psi4 started on: Tuesday, 27 September 2022 06:25PM

    Process ID: 10544
    Host:       Lenovo-Y540-Zoha
    PSIDATADIR: C:\Users\64292\Anaconda3\envs\qm-tools\lib\share\psi4
    Memory:     476.8 MiB
    Threads:    1
    
  ==> Input QCSchema <==

--------------------------------------------------------------------------
{'driver': 'energy',
 'extras': {'psiapi': True, 'wfn_qcvars_only': True},
 'id': None,
 'keywords': {'function_kwargs': {}},
 'model': {'basis': 'aug-cc-pvdz', 'method': 'scf'},
 'molecule': {'atom_labels': ['1', '2', '3', '5', '6', '7'],
              'atomic_numbers': [8, 1, 1, 8, 1, 1],
              'fix_com': True,
              'fix_orientation': True,
              'fragment_charges': [0.0, 0.0],
              'fragment_multiplicities': [1, 1],
              'fragments': [[0, 1, 2], [3, 4, 5]],
              'geometry': [3.6985726236876735e-17, -0.05118338925575476, -3.021563736858451, 3.6985726236876735e-17,
                           -0.05118338925575476, -1.131837611400623, 3.6985726236876735e-17, 1.7781852282291912,
                           -3.4953519707763827, 3.6985726236876735e-17, -0.05118338925575476, 2.8365872520608164,
                           0.42357052330016404, -1.6319701028005071, 3.7814503147897303, -0.4235705233001653,
                           1.529603324288996, 3.7814503147897307],
              'mass_numbers': [16, 1, 1, 16, 1, 1],
              'masses': [15.99491461957, 1.00782503223, 1.00782503223, 15.99491461957, 1.00782503223, 1.00782503223],
              'molecular_charge': 0.0,
              'molecular_multiplicity': 1,
              'name': 'H4O2',
              'provenance': {'creator': 'QCElemental',
                             'routine': 'qcelemental.molparse.from_string',
                             'version': 'v0.25.0'},
              'real': [True, True, True, False, False, False],
              'schema_name': 'qcschema_molecule',
              'schema_version': 2,
              'symbols': ['O', 'H', 'H', 'O', 'H', 'H'],
              'validated': True},
 'protocols': {'stdout': True},
 'provenance': {'creator': 'QCElemental', 'routine': 'qcelemental.models.results', 'version': 'v0.25.0'},
 'schema_name': 'qcschema_input',
 'schema_version': 1}
--------------------------------------------------------------------------

Scratch directory: C:\Users\64292\AppData\Local\Temp/

*** tstart() called on Lenovo-Y540-Zoha
*** at Tue Sep 27 18:44:16 2022

   => Loading Basis Set <=

    Name: AUG-CC-PVDZ
    Role: ORBITAL
    Keyword: BASIS
    atoms 1, 4     entry O          line   254 file C:\Users\64292\Anaconda3\envs\qm-tools\lib\share\psi4\basis\aug-cc-pvdz.gbs 
    atoms 2-3, 5-6 entry H          line    40 file C:\Users\64292\Anaconda3\envs\qm-tools\lib\share\psi4\basis\aug-cc-pvdz.gbs 


         ---------------------------------------------------------
                                   SCF
               by Justin Turney, Rob Parrish, Andy Simmonett
                          and Daniel G. A. Smith
                              RHF Reference
                        1 Threads,    476 MiB Core
         ---------------------------------------------------------

  ==> Geometry <==

    Molecular point group: c1
    Full point group: C1

    Geometry (in Bohr), charge = 0, multiplicity = 1:

       Center              X                  Y                   Z               Mass       
    ------------   -----------------  -----------------  -----------------  -----------------
         O            0.000000000000    -0.051183389256    -3.021563736858    15.994914619570
         H            0.000000000000    -0.051183389256    -1.131837611401     1.007825032230
         H            0.000000000000     1.778185228229    -3.495351970776     1.007825032230
      Gh(O)           0.000000000000    -0.051183389256     2.836587252061    15.994914619570
      Gh(H)           0.423570523300    -1.631970102801     3.781450314790     1.007825032230
      Gh(H)          -0.423570523300     1.529603324289     3.781450314790     1.007825032230

  Running in c1 symmetry.

  Rotational constants: A =      7.04707  B =      0.18965  C =      0.18483 [cm^-1]
  Rotational constants: A = 211265.88116  B =   5685.54444  C =   5541.14699 [MHz]
  Nuclear repulsion =    8.801420354575150

  Charge       = 0
  Multiplicity = 1
  Electrons    = 10
  Nalpha       = 5
  Nbeta        = 5

  ==> Algorithm <==

  SCF Algorithm Type is DF.
  DIIS enabled.
  MOM disabled.
  Fractional occupation disabled.
  Guess Type is SAD.
  Energy threshold   = 1.00e-06
  Density threshold  = 1.00e-06
  Integral threshold = 1.00e-12

  ==> Primary Basis <==

  Basis Set: AUG-CC-PVDZ
    Blend: AUG-CC-PVDZ
    Number of shells: 38
    Number of basis functions: 82
    Number of Cartesian functions: 86
    Spherical Harmonics?: true
    Max angular momentum: 2

   => Loading Basis Set <=

    Name: (AUG-CC-PVDZ AUX)
    Role: JKFIT
    Keyword: DF_BASIS_SCF
    atoms 1, 4     entry O          line   270 file C:\Users\64292\Anaconda3\envs\qm-tools\lib\share\psi4\basis\aug-cc-pvdz-jkfit.gbs 
    atoms 2-3, 5-6 entry H          line    70 file C:\Users\64292\Anaconda3\envs\qm-tools\lib\share\psi4\basis\aug-cc-pvdz-jkfit.gbs 

  ==> Integral Setup <==

  DFHelper Memory: AOs need 0.017 GiB; user supplied 0.349 GiB. Using in-core AOs.

  ==> MemDFJK: Density-Fitted J/K Matrices <==

    J tasked:                   Yes
    K tasked:                   Yes
    wK tasked:                   No
    OpenMP threads:               1
    Memory [MiB]:               357
    Algorithm:                 Core
    Schwarz Cutoff:           1E-12
    Mask sparsity (%):       0.0000
    Fitting Condition:        1E-10

   => Auxiliary Basis Set <=

  Basis Set: (AUG-CC-PVDZ AUX)
    Blend: AUG-CC-PVDZ-JKFIT
    Number of shells: 104
    Number of basis functions: 300
    Number of Cartesian functions: 342
    Spherical Harmonics?: true
    Max angular momentum: 3

  Minimum eigenvalue in the overlap matrix is 1.9511042716E-03.
  Reciprocal condition number of the overlap matrix is 2.7094179822E-04.
    Using symmetric orthogonalization.

  ==> Pre-Iterations <==

  SCF Guess: Superposition of Atomic Densities via on-the-fly atomic UHF (no occupation information).

   -------------------------
    Irrep   Nso     Nmo    
   -------------------------
     A         82      82 
   -------------------------
    Total      82      82
   -------------------------

  ==> Iterations <==

                           Total Energy        Delta E     RMS |[F,P]|

   @DF-RHF iter SAD:   -75.41487089016296   -7.54149e+01   0.00000e+00 
   @DF-RHF iter   1:   -75.94941559782932   -5.34545e-01   5.50565e-03 DIIS/ADIIS
   @DF-RHF iter   2:   -76.00129500380631   -5.18794e-02   3.77505e-03 DIIS/ADIIS
   @DF-RHF iter   3:   -76.03524910046063   -3.39541e-02   2.81182e-04 DIIS/ADIIS
   @DF-RHF iter   4:   -76.03570264814719   -4.53548e-04   6.60429e-05 DIIS
   @DF-RHF iter   5:   -76.03573281376138   -3.01656e-05   1.56350e-05 DIIS
   @DF-RHF iter   6:   -76.03573538617867   -2.57242e-06   3.09263e-06 DIIS
   @DF-RHF iter   7:   -76.03573548961380   -1.03435e-07   5.05077e-07 DIIS
  Energy and wave function converged.


  ==> Post-Iterations <==

    Orbital Energies [Eh]
    ---------------------

    Doubly Occupied:                                                      

       1A    -20.584245     2A     -1.335642     3A     -0.696502  
       4A     -0.577372     5A     -0.506068  

    Virtual:                                                              

       6A      0.024621     7A      0.049098     8A      0.059038  
       9A      0.082750    10A      0.136910    11A      0.142507  
      12A      0.178852    13A      0.194869    14A      0.220001  
      15A      0.226426    16A      0.227973    17A      0.268987  
      18A      0.322994    19A      0.352445    20A      0.376796  
      21A      0.398437    22A      0.403674    23A      0.416362  
      24A      0.436661    25A      0.467366    26A      0.475636  
      27A      0.487094    28A      0.497365    29A      0.547575  
      30A      0.584031    31A      0.632575    32A      0.650770  
      33A      0.768896    34A      0.835673    35A      0.909638  
      36A      0.950131    37A      1.036873    38A      1.108358  
      39A      1.145706    40A      1.170968    41A      1.189188  
      42A      1.205920    43A      1.279056    44A      1.293112  
      45A      1.307283    46A      1.332358    47A      1.361525  
      48A      1.426608    49A      1.506829    50A      1.553152  
      51A      1.728395    52A      1.992491    53A      1.995434  
      54A      2.048896    55A      2.091369    56A      2.305978  
      57A      2.363597    58A      2.380103    59A      2.390254  
      60A      2.433603    61A      2.484679    62A      2.578735  
      63A      2.733755    64A      2.907429    65A      2.987620  
      66A      3.400236    67A      3.675040    68A      3.708172  
      69A      3.721198    70A      3.938201    71A      3.962668  
      72A      4.060696    73A      4.277197    74A      4.885533  
      75A      4.938797    76A      5.053129    77A      5.325788  
      78A      5.342042    79A      5.581544    80A      6.332971  
      81A      6.810288    82A     33.526884  

    Final Occupation by Irrep:
              A 
    DOCC [     5 ]

  @DF-RHF Final Energy:   -76.03573548961380

   => Energetics <=

    Nuclear Repulsion Energy =              8.8014203545751499
    One-Electron Energy =                -122.2746318758151176
    Two-Electron Energy =                  37.4374760316261614
    Total Energy =                        -76.0357354896137991

Computation Completed


Properties will be evaluated at   0.000000,   0.000000,   0.000000 [a0]

Properties computed using the SCF density matrix


 Multipole Moments:

 ------------------------------------------------------------------------------------
     Multipole            Electronic (a.u.)      Nuclear  (a.u.)        Total (a.u.)
 ------------------------------------------------------------------------------------

 L = 1.  Multiply by 2.5417464519 to convert [e a0] to [Debye]
 Dipole X            :         -0.0000531            0.0000000           -0.0000531
 Dipole Y            :         -0.6853623            1.3175347            0.6321724
 Dipole Z            :         29.2889003          -28.7996995            0.4892008
 Magnitude           :                                                    0.7993493

 ------------------------------------------------------------------------------------

*** tstop() called on Lenovo-Y540-Zoha at Tue Sep 27 18:44:17 2022
Module time:
	user time   =        nan seconds =        nan minutes
	system time =        nan seconds =        nan minutes
	total time  =          1 seconds =       0.02 minutes
Total time:
	user time   =        nan seconds =        nan minutes
	system time =        nan seconds =        nan minutes
	total time  =       1076 seconds =      17.93 minutes

    Psi4 stopped on: Tuesday, 27 September 2022 06:44PM
    Psi4 wall time for execution: 0:00:01.04


    -----------------------------------------------------------------------
          Psi4: An Open-Source Ab Initio Electronic Structure Package
                               Psi4 1.6.1 release

                         Git: Rev {HEAD} 5b9f6e3 


    D. G. A. Smith, L. A. Burns, A. C. Simmonett, R. M. Parrish,
    M. C. Schieber, R. Galvelis, P. Kraus, H. Kruse, R. Di Remigio,
    A. Alenaizan, A. M. James, S. Lehtola, J. P. Misiewicz, M. Scheurer,
    R. A. Shaw, J. B. Schriber, Y. Xie, Z. L. Glick, D. A. Sirianni,
    J. S. O'Brien, J. M. Waldrop, A. Kumar, E. G. Hohenstein,
    B. P. Pritchard, B. R. Brooks, H. F. Schaefer III, A. Yu. Sokolov,
    K. Patkowski, A. E. DePrince III, U. Bozkaya, R. A. King,
    F. A. Evangelista, J. M. Turney, T. D. Crawford, C. D. Sherrill,
    J. Chem. Phys. 152(18) 184108 (2020). https://doi.org/10.1063/5.0006002

                            Additional Code Authors
    E. T. Seidl, C. L. Janssen, E. F. Valeev, M. L. Leininger,
    J. F. Gonthier, R. M. Richard, H. R. McAlexander, M. Saitow, X. Wang,
    P. Verma, M. H. Lechner, and A. Jiang

             Previous Authors, Complete List of Code Contributors,
                       and Citations for Specific Modules
    https://github.com/psi4/psi4/blob/master/codemeta.json
    https://github.com/psi4/psi4/graphs/contributors
    http://psicode.org/psi4manual/master/introduction.html#citing-psifour

    -----------------------------------------------------------------------


    Psi4 started on: Tuesday, 27 September 2022 06:25PM

    Process ID: 10544
    Host:       Lenovo-Y540-Zoha
    PSIDATADIR: C:\Users\64292\Anaconda3\envs\qm-tools\lib\share\psi4
    Memory:     476.8 MiB
    Threads:    1
    
  ==> Input QCSchema <==

--------------------------------------------------------------------------
{'driver': 'energy',
 'extras': {'psiapi': True, 'wfn_qcvars_only': True},
 'id': None,
 'keywords': {'function_kwargs': {}},
 'model': {'basis': 'aug-cc-pvdz', 'method': 'scf'},
 'molecule': {'atom_labels': ['1', '2', '3', '5', '6', '7'],
              'atomic_numbers': [8, 1, 1, 8, 1, 1],
              'fix_com': True,
              'fix_orientation': True,
              'fragment_charges': [0.0, 0.0],
              'fragment_multiplicities': [1, 1],
              'fragments': [[0, 1, 2], [3, 4, 5]],
              'geometry': [3.6985726236876735e-17, -0.05118338925575476, -3.021563736858451, 3.6985726236876735e-17,
                           -0.05118338925575476, -1.131837611400623, 3.6985726236876735e-17, 1.7781852282291912,
                           -3.4953519707763827, 3.6985726236876735e-17, -0.05118338925575476, 2.8365872520608164,
                           0.42357052330016404, -1.6319701028005071, 3.7814503147897303, -0.4235705233001653,
                           1.529603324288996, 3.7814503147897307],
              'mass_numbers': [16, 1, 1, 16, 1, 1],
              'masses': [15.99491461957, 1.00782503223, 1.00782503223, 15.99491461957, 1.00782503223, 1.00782503223],
              'molecular_charge': 0.0,
              'molecular_multiplicity': 1,
              'name': 'H4O2',
              'provenance': {'creator': 'QCElemental',
                             'routine': 'qcelemental.molparse.from_string',
                             'version': 'v0.25.0'},
              'real': [True, True, True, True, True, True],
              'schema_name': 'qcschema_molecule',
              'schema_version': 2,
              'symbols': ['O', 'H', 'H', 'O', 'H', 'H'],
              'validated': True},
 'protocols': {'stdout': True},
 'provenance': {'creator': 'QCElemental', 'routine': 'qcelemental.models.results', 'version': 'v0.25.0'},
 'schema_name': 'qcschema_input',
 'schema_version': 1}
--------------------------------------------------------------------------

Scratch directory: C:\Users\64292\AppData\Local\Temp/

*** tstart() called on Lenovo-Y540-Zoha
*** at Tue Sep 27 18:44:17 2022

   => Loading Basis Set <=

    Name: AUG-CC-PVDZ
    Role: ORBITAL
    Keyword: BASIS
    atoms 1, 4     entry O          line   254 file C:\Users\64292\Anaconda3\envs\qm-tools\lib\share\psi4\basis\aug-cc-pvdz.gbs 
    atoms 2-3, 5-6 entry H          line    40 file C:\Users\64292\Anaconda3\envs\qm-tools\lib\share\psi4\basis\aug-cc-pvdz.gbs 


         ---------------------------------------------------------
                                   SCF
               by Justin Turney, Rob Parrish, Andy Simmonett
                          and Daniel G. A. Smith
                              RHF Reference
                        1 Threads,    476 MiB Core
         ---------------------------------------------------------

  ==> Geometry <==

    Molecular point group: c1
    Full point group: C1

    Geometry (in Bohr), charge = 0, multiplicity = 1:

       Center              X                  Y                   Z               Mass       
    ------------   -----------------  -----------------  -----------------  -----------------
         O            0.000000000000    -0.051183389256    -3.021563736858    15.994914619570
         H            0.000000000000    -0.051183389256    -1.131837611401     1.007825032230
         H            0.000000000000     1.778185228229    -3.495351970776     1.007825032230
         O            0.000000000000    -0.051183389256     2.836587252061    15.994914619570
         H            0.423570523300    -1.631970102801     3.781450314790     1.007825032230
         H           -0.423570523300     1.529603324289     3.781450314790     1.007825032230

  Running in c1 symmetry.

  Rotational constants: A =      7.04707  B =      0.18965  C =      0.18483 [cm^-1]
  Rotational constants: A = 211265.88116  B =   5685.54444  C =   5541.14699 [MHz]
  Nuclear repulsion =   34.662670238806960

  Charge       = 0
  Multiplicity = 1
  Electrons    = 20
  Nalpha       = 10
  Nbeta        = 10

  ==> Algorithm <==

  SCF Algorithm Type is DF.
  DIIS enabled.
  MOM disabled.
  Fractional occupation disabled.
  Guess Type is SAD.
  Energy threshold   = 1.00e-06
  Density threshold  = 1.00e-06
  Integral threshold = 1.00e-12

  ==> Primary Basis <==

  Basis Set: AUG-CC-PVDZ
    Blend: AUG-CC-PVDZ
    Number of shells: 38
    Number of basis functions: 82
    Number of Cartesian functions: 86
    Spherical Harmonics?: true
    Max angular momentum: 2

   => Loading Basis Set <=

    Name: (AUG-CC-PVDZ AUX)
    Role: JKFIT
    Keyword: DF_BASIS_SCF
    atoms 1, 4     entry O          line   270 file C:\Users\64292\Anaconda3\envs\qm-tools\lib\share\psi4\basis\aug-cc-pvdz-jkfit.gbs 
    atoms 2-3, 5-6 entry H          line    70 file C:\Users\64292\Anaconda3\envs\qm-tools\lib\share\psi4\basis\aug-cc-pvdz-jkfit.gbs 

  ==> Integral Setup <==

  DFHelper Memory: AOs need 0.017 GiB; user supplied 0.349 GiB. Using in-core AOs.

  ==> MemDFJK: Density-Fitted J/K Matrices <==

    J tasked:                   Yes
    K tasked:                   Yes
    wK tasked:                   No
    OpenMP threads:               1
    Memory [MiB]:               357
    Algorithm:                 Core
    Schwarz Cutoff:           1E-12
    Mask sparsity (%):       0.0000
    Fitting Condition:        1E-10

   => Auxiliary Basis Set <=

  Basis Set: (AUG-CC-PVDZ AUX)
    Blend: AUG-CC-PVDZ-JKFIT
    Number of shells: 104
    Number of basis functions: 300
    Number of Cartesian functions: 342
    Spherical Harmonics?: true
    Max angular momentum: 3

  Minimum eigenvalue in the overlap matrix is 1.9511042716E-03.
  Reciprocal condition number of the overlap matrix is 2.7094179822E-04.
    Using symmetric orthogonalization.

  ==> Pre-Iterations <==

  SCF Guess: Superposition of Atomic Densities via on-the-fly atomic UHF (no occupation information).

   -------------------------
    Irrep   Nso     Nmo    
   -------------------------
     A         82      82 
   -------------------------
    Total      82      82
   -------------------------

  ==> Iterations <==

                           Total Energy        Delta E     RMS |[F,P]|

   @DF-RHF iter SAD:  -150.87281939117429   -1.50873e+02   0.00000e+00 
   @DF-RHF iter   1:  -151.91181165272016   -1.03899e+00   7.54482e-03 DIIS/ADIIS
   @DF-RHF iter   2:  -152.01187432998469   -1.00063e-01   4.97866e-03 DIIS/ADIIS
   @DF-RHF iter   3:  -152.07057896826220   -5.87046e-02   4.10658e-04 DIIS/ADIIS
   @DF-RHF iter   4:  -152.07153986438368   -9.60896e-04   9.03930e-05 DIIS
   @DF-RHF iter   5:  -152.07159663432071   -5.67699e-05   2.78913e-05 DIIS
   @DF-RHF iter   6:  -152.07160212158072   -5.48726e-06   1.27024e-05 DIIS
   @DF-RHF iter   7:  -152.07160292869546   -8.07115e-07   2.56162e-06 DIIS
   @DF-RHF iter   8:  -152.07160299618488   -6.74894e-08   4.55960e-07 DIIS
  Energy and wave function converged.


  ==> Post-Iterations <==

    Orbital Energies [Eh]
    ---------------------

    Doubly Occupied:                                                      

       1A    -20.598963     2A    -20.553152     3A     -1.350888  
       4A     -1.306728     5A     -0.744819     6A     -0.672291  
       7A     -0.581415     8A     -0.542958     9A     -0.525511  
      10A     -0.477227  

    Virtual:                                                              

      11A      0.025579    12A      0.049032    13A      0.058718  
      14A      0.091007    15A      0.174178    16A      0.179457  
      17A      0.195918    18A      0.213433    19A      0.233330  
      20A      0.238139    21A      0.247106    22A      0.268089  
      23A      0.301408    24A      0.310205    25A      0.355711  
      26A      0.365150    27A      0.411898    28A      0.431399  
      29A      0.441399    30A      0.461649    31A      0.522048  
      32A      0.529071    33A      0.536089    34A      0.585513  
      35A      0.630787    36A      0.655501    37A      0.669703  
      38A      0.781225    39A      0.858724    40A      0.876537  
      41A      0.935552    42A      0.996658    43A      1.063266  
      44A      1.124461    45A      1.140947    46A      1.173426  
      47A      1.189369    48A      1.227179    49A      1.328674  
      50A      1.436627    51A      1.461589    52A      1.507687  
      53A      1.533307    54A      1.595636    55A      1.616521  
      56A      1.954285    57A      1.973993    58A      2.017515  
      59A      2.023629    60A      2.029597    61A      2.041903  
      62A      2.125296    63A      2.346856    64A      2.377586  
      65A      2.448820    66A      2.484788    67A      2.510346  
      68A      2.718115    69A      2.758073    70A      2.802790  
      71A      2.964286    72A      3.023135    73A      3.653065  
      74A      3.676912    75A      3.705807    76A      3.737518  
      77A      3.764773    78A      3.777326    79A      4.073829  
      80A      4.121199    81A      4.175360    82A      4.341506  

    Final Occupation by Irrep:
              A 
    DOCC [    10 ]

  @DF-RHF Final Energy:  -152.07160299618488

   => Energetics <=

    Nuclear Repulsion Energy =             34.6626702388069603
    One-Electron Energy =                -278.7606210845021906
    Two-Electron Energy =                  92.0263478495103584
    Total Energy =                       -152.0716029961848790

Computation Completed


Properties will be evaluated at   0.000000,   0.000000,   0.000000 [a0]

Properties computed using the SCF density matrix


 Multipole Moments:

 ------------------------------------------------------------------------------------
     Multipole            Electronic (a.u.)      Nuclear  (a.u.)        Total (a.u.)
 ------------------------------------------------------------------------------------

 L = 1.  Multiply by 2.5417464519 to convert [e a0] to [Debye]
 Dipole X            :          0.0006578           -0.0000000            0.0006578
 Dipole Y            :         -0.1994227            0.8057008            0.6062781
 Dipole Z            :         -0.0704934            1.4558992            1.3854058
 Magnitude           :                                                    1.5122575

 ------------------------------------------------------------------------------------

*** tstop() called on Lenovo-Y540-Zoha at Tue Sep 27 18:44:18 2022
Module time:
	user time   =        nan seconds =        nan minutes
	system time =        nan seconds =        nan minutes
	total time  =          1 seconds =       0.02 minutes
Total time:
	user time   =        nan seconds =        nan minutes
	system time =        nan seconds =        nan minutes
	total time  =       1077 seconds =      17.95 minutes

    Psi4 stopped on: Tuesday, 27 September 2022 06:44PM
    Psi4 wall time for execution: 0:00:01.02


  //>>>>>>>>>>>>>>>>>>>>>>>>>>>>>>>>>>>//
  //          ManyBody Results         //
  //<<<<<<<<<<<<<<<<<<<<<<<<<<<<<<<<<<<//


   ==> N-Body: Counterpoise Corrected (CP) energies <==

        n-Body     Total Energy            Interaction Energy                          N-body Contribution to Interaction Energy
                   [Eh]                    [Eh]                  [kcal/mol]            [Eh]                  [kcal/mol]
             1  N/A                         0.000000000000        0.000000000000        0.000000000000        0.000000000000
  FULL/RTN   2  N/A                        -0.005959779389       -3.739818028259       -0.005959779389       -3.739818028259

