
Scratch directory: C:\Users\64292\AppData\Local\Temp/

  //>>>>>>>>>>>>>>>>>>>>>>>>>>>>>>>>>>>>>//
  // ManyBody Setup: N-Body Levels [1, 2]//
  //<<<<<<<<<<<<<<<<<<<<<<<<<<<<<<<<<<<<<//

        Number of 1-body computations:     2
        Number of 2-body computations:     1

    -----------------------------------------------------------------------
          Psi4: An Open-Source Ab Initio Electronic Structure Package
                               Psi4 1.6.1 release

                         Git: Rev {HEAD} 5b9f6e3 


    D. G. A. Smith, L. A. Burns, A. C. Simmonett, R. M. Parrish,
    M. C. Schieber, R. Galvelis, P. Kraus, H. Kruse, R. Di Remigio,
    A. Alenaizan, A. M. James, S. Lehtola, J. P. Misiewicz, M. Scheurer,
    R. A. Shaw, J. B. Schriber, Y. Xie, Z. L. Glick, D. A. Sirianni,
    J. S. O'Brien, J. M. Waldrop, A. Kumar, E. G. Hohenstein,
    B. P. Pritchard, B. R. Brooks, H. F. Schaefer III, A. Yu. Sokolov,
    K. Patkowski, A. E. DePrince III, U. Bozkaya, R. A. King,
    F. A. Evangelista, J. M. Turney, T. D. Crawford, C. D. Sherrill,
    J. Chem. Phys. 152(18) 184108 (2020). https://doi.org/10.1063/5.0006002

                            Additional Code Authors
    E. T. Seidl, C. L. Janssen, E. F. Valeev, M. L. Leininger,
    J. F. Gonthier, R. M. Richard, H. R. McAlexander, M. Saitow, X. Wang,
    P. Verma, M. H. Lechner, and A. Jiang

             Previous Authors, Complete List of Code Contributors,
                       and Citations for Specific Modules
    https://github.com/psi4/psi4/blob/master/codemeta.json
    https://github.com/psi4/psi4/graphs/contributors
    http://psicode.org/psi4manual/master/introduction.html#citing-psifour

    -----------------------------------------------------------------------


    Psi4 started on: Tuesday, 27 September 2022 06:25PM

    Process ID: 10544
    Host:       Lenovo-Y540-Zoha
    PSIDATADIR: C:\Users\64292\Anaconda3\envs\qm-tools\lib\share\psi4
    Memory:     476.8 MiB
    Threads:    1
    
  ==> Input QCSchema <==

--------------------------------------------------------------------------
{'driver': 'energy',
 'extras': {'psiapi': True, 'wfn_qcvars_only': True},
 'id': None,
 'keywords': {'function_kwargs': {}},
 'model': {'basis': 'aug-cc-pvdz', 'method': 'scf'},
 'molecule': {'atom_labels': ['1', '2', '3', '5', '6', '7'],
              'atomic_numbers': [8, 1, 1, 8, 1, 1],
              'fix_com': True,
              'fix_orientation': True,
              'fragment_charges': [0.0, 0.0],
              'fragment_multiplicities': [1, 1],
              'fragments': [[0, 1, 2], [3, 4, 5]],
              'geometry': [3.6985726236876735e-17, -0.05118338925575475, -3.3050226556771247, 3.6985726236876735e-17,
                           -0.05118338925575475, -1.4152965302192972, 3.6985726236876735e-17, 1.7781852282291912,
                           -3.7788108895950563, 3.6985726236876735e-17, -0.05118338925575475, 3.120046170879491,
                           -1.1572161902445872, 1.1060328009888312, 4.064909233608405, 1.157216190244586,
                           -1.2083995795003426, 4.064909233608404],
              'mass_numbers': [16, 1, 1, 16, 1, 1],
              'masses': [15.99491461957, 1.00782503223, 1.00782503223, 15.99491461957, 1.00782503223, 1.00782503223],
              'molecular_charge': 0.0,
              'molecular_multiplicity': 1,
              'name': 'H4O2',
              'provenance': {'creator': 'QCElemental',
                             'routine': 'qcelemental.molparse.from_string',
                             'version': 'v0.25.0'},
              'real': [False, False, False, True, True, True],
              'schema_name': 'qcschema_molecule',
              'schema_version': 2,
              'symbols': ['O', 'H', 'H', 'O', 'H', 'H'],
              'validated': True},
 'protocols': {'stdout': True},
 'provenance': {'creator': 'QCElemental', 'routine': 'qcelemental.models.results', 'version': 'v0.25.0'},
 'schema_name': 'qcschema_input',
 'schema_version': 1}
--------------------------------------------------------------------------

Scratch directory: C:\Users\64292\AppData\Local\Temp/

*** tstart() called on Lenovo-Y540-Zoha
*** at Tue Sep 27 18:48:08 2022

   => Loading Basis Set <=

    Name: AUG-CC-PVDZ
    Role: ORBITAL
    Keyword: BASIS
    atoms 1, 4     entry O          line   254 file C:\Users\64292\Anaconda3\envs\qm-tools\lib\share\psi4\basis\aug-cc-pvdz.gbs 
    atoms 2-3, 5-6 entry H          line    40 file C:\Users\64292\Anaconda3\envs\qm-tools\lib\share\psi4\basis\aug-cc-pvdz.gbs 


         ---------------------------------------------------------
                                   SCF
               by Justin Turney, Rob Parrish, Andy Simmonett
                          and Daniel G. A. Smith
                              RHF Reference
                        1 Threads,    476 MiB Core
         ---------------------------------------------------------

  ==> Geometry <==

    Molecular point group: c1
    Full point group: C1

    Geometry (in Bohr), charge = 0, multiplicity = 1:

       Center              X                  Y                   Z               Mass       
    ------------   -----------------  -----------------  -----------------  -----------------
      Gh(O)           0.000000000000    -0.051183389256    -3.305022655677    15.994914619570
      Gh(H)           0.000000000000    -0.051183389256    -1.415296530219     1.007825032230
      Gh(H)           0.000000000000     1.778185228229    -3.778810889595     1.007825032230
         O            0.000000000000    -0.051183389256     3.120046170879    15.994914619570
         H           -1.157216190245     1.106032800989     4.064909233608     1.007825032230
         H            1.157216190245    -1.208399579500     4.064909233608     1.007825032230

  Running in c1 symmetry.

  Rotational constants: A =      7.04318  B =      0.15783  C =      0.15529 [cm^-1]
  Rotational constants: A = 211149.10952  B =   4731.69864  C =   4655.42698 [MHz]
  Nuclear repulsion =    8.772355975749342

  Charge       = 0
  Multiplicity = 1
  Electrons    = 10
  Nalpha       = 5
  Nbeta        = 5

  ==> Algorithm <==

  SCF Algorithm Type is DF.
  DIIS enabled.
  MOM disabled.
  Fractional occupation disabled.
  Guess Type is SAD.
  Energy threshold   = 1.00e-06
  Density threshold  = 1.00e-06
  Integral threshold = 1.00e-12

  ==> Primary Basis <==

  Basis Set: AUG-CC-PVDZ
    Blend: AUG-CC-PVDZ
    Number of shells: 38
    Number of basis functions: 82
    Number of Cartesian functions: 86
    Spherical Harmonics?: true
    Max angular momentum: 2

   => Loading Basis Set <=

    Name: (AUG-CC-PVDZ AUX)
    Role: JKFIT
    Keyword: DF_BASIS_SCF
    atoms 1, 4     entry O          line   270 file C:\Users\64292\Anaconda3\envs\qm-tools\lib\share\psi4\basis\aug-cc-pvdz-jkfit.gbs 
    atoms 2-3, 5-6 entry H          line    70 file C:\Users\64292\Anaconda3\envs\qm-tools\lib\share\psi4\basis\aug-cc-pvdz-jkfit.gbs 

  ==> Integral Setup <==

  DFHelper Memory: AOs need 0.017 GiB; user supplied 0.349 GiB. Using in-core AOs.

  ==> MemDFJK: Density-Fitted J/K Matrices <==

    J tasked:                   Yes
    K tasked:                   Yes
    wK tasked:                   No
    OpenMP threads:               1
    Memory [MiB]:               357
    Algorithm:                 Core
    Schwarz Cutoff:           1E-12
    Mask sparsity (%):       0.0297
    Fitting Condition:        1E-10

   => Auxiliary Basis Set <=

  Basis Set: (AUG-CC-PVDZ AUX)
    Blend: AUG-CC-PVDZ-JKFIT
    Number of shells: 104
    Number of basis functions: 300
    Number of Cartesian functions: 342
    Spherical Harmonics?: true
    Max angular momentum: 3

  Minimum eigenvalue in the overlap matrix is 2.2486760181E-03.
  Reciprocal condition number of the overlap matrix is 3.2852486713E-04.
    Using symmetric orthogonalization.

  ==> Pre-Iterations <==

  SCF Guess: Superposition of Atomic Densities via on-the-fly atomic UHF (no occupation information).

   -------------------------
    Irrep   Nso     Nmo    
   -------------------------
     A         82      82 
   -------------------------
    Total      82      82
   -------------------------

  ==> Iterations <==

                           Total Energy        Delta E     RMS |[F,P]|

   @DF-RHF iter SAD:   -75.40236292622824   -7.54024e+01   0.00000e+00 
   @DF-RHF iter   1:   -75.94507312445145   -5.42710e-01   5.50726e-03 DIIS/ADIIS
   @DF-RHF iter   2:   -75.99624808383338   -5.11750e-02   3.72853e-03 DIIS/ADIIS
   @DF-RHF iter   3:   -76.02933176705473   -3.30837e-02   2.79202e-04 DIIS/ADIIS
   @DF-RHF iter   4:   -76.02980279701202   -4.71030e-04   6.67375e-05 DIIS
   @DF-RHF iter   5:   -76.02983538255010   -3.25855e-05   1.62910e-05 DIIS
   @DF-RHF iter   6:   -76.02983845528995   -3.07274e-06   3.49426e-06 DIIS
   @DF-RHF iter   7:   -76.02983860994549   -1.54656e-07   6.40934e-07 DIIS
  Energy and wave function converged.


  ==> Post-Iterations <==

    Orbital Energies [Eh]
    ---------------------

    Doubly Occupied:                                                      

       1A    -20.575758     2A     -1.325863     3A     -0.721214  
       4A     -0.548261     5A     -0.500735  

    Virtual:                                                              

       6A      0.032761     7A      0.052490     8A      0.055887  
       9A      0.081990    10A      0.160587    11A      0.169008  
      12A      0.181102    13A      0.197598    14A      0.212176  
      15A      0.223039    16A      0.236226    17A      0.251667  
      18A      0.306520    19A      0.328750    20A      0.372163  
      21A      0.400110    22A      0.431988    23A      0.451063  
      24A      0.454477    25A      0.485106    26A      0.510370  
      27A      0.523219    28A      0.545979    29A      0.563592  
      30A      0.604720    31A      0.640566    32A      0.657289  
      33A      0.695618    34A      0.857775    35A      0.875821  
      36A      0.915419    37A      0.931929    38A      1.108400  
      39A      1.135844    40A      1.146393    41A      1.196920  
      42A      1.229515    43A      1.279531    44A      1.332049  
      45A      1.356840    46A      1.381969    47A      1.419835  
      48A      1.448848    49A      1.516709    50A      1.558180  
      51A      1.861859    52A      1.977861    53A      2.030290  
      54A      2.046809    55A      2.056312    56A      2.279174  
      57A      2.367512    58A      2.407325    59A      2.437517  
      60A      2.460296    61A      2.523354    62A      2.555014  
      63A      2.689848    64A      2.777975    65A      2.899253  
      66A      3.412803    67A      3.677599    68A      3.700835  
      69A      3.776666    70A      3.903993    71A      4.069850  
      72A      4.141739    73A      4.178505    74A      4.907929  
      75A      4.953201    76A      4.989614    77A      5.158155  
      78A      5.472683    79A      5.637957    80A      6.385476  
      81A      6.832815    82A     33.564980  

    Final Occupation by Irrep:
              A 
    DOCC [     5 ]

  @DF-RHF Final Energy:   -76.02983860994549

   => Energetics <=

    Nuclear Repulsion Energy =              8.7723559757493419
    One-Electron Energy =                -122.2606906009529268
    Two-Electron Energy =                  37.4584960152580919
    Total Energy =                        -76.0298386099454859

Computation Completed


Properties will be evaluated at   0.000000,   0.000000,   0.000000 [a0]

Properties computed using the SCF density matrix


 Multipole Moments:

 ------------------------------------------------------------------------------------
     Multipole            Electronic (a.u.)      Nuclear  (a.u.)        Total (a.u.)
 ------------------------------------------------------------------------------------

 L = 1.  Multiply by 2.5417464519 to convert [e a0] to [Debye]
 Dipole X            :         -0.0000961           -0.0000000           -0.0000961
 Dipole Y            :          0.5116917           -0.5118339           -0.0001422
 Dipole Z            :        -32.4029229           33.0901878            0.6872650
 Magnitude           :                                                    0.6872650

 ------------------------------------------------------------------------------------

*** tstop() called on Lenovo-Y540-Zoha at Tue Sep 27 18:48:09 2022
Module time:
	user time   =        nan seconds =        nan minutes
	system time =        nan seconds =        nan minutes
	total time  =          1 seconds =       0.02 minutes
Total time:
	user time   =        nan seconds =        nan minutes
	system time =        nan seconds =        nan minutes
	total time  =       1308 seconds =      21.80 minutes

    Psi4 stopped on: Tuesday, 27 September 2022 06:48PM
    Psi4 wall time for execution: 0:00:01.00

