
Scratch directory: C:\Users\64292\AppData\Local\Temp/

  //>>>>>>>>>>>>>>>>>>>>>>>>>>>>>>>>>>>>>//
  // ManyBody Setup: N-Body Levels [1, 2]//
  //<<<<<<<<<<<<<<<<<<<<<<<<<<<<<<<<<<<<<//

        Number of 1-body computations:     2
        Number of 2-body computations:     1

    -----------------------------------------------------------------------
          Psi4: An Open-Source Ab Initio Electronic Structure Package
                               Psi4 1.6.1 release

                         Git: Rev {HEAD} 5b9f6e3 


    D. G. A. Smith, L. A. Burns, A. C. Simmonett, R. M. Parrish,
    M. C. Schieber, R. Galvelis, P. Kraus, H. Kruse, R. Di Remigio,
    A. Alenaizan, A. M. James, S. Lehtola, J. P. Misiewicz, M. Scheurer,
    R. A. Shaw, J. B. Schriber, Y. Xie, Z. L. Glick, D. A. Sirianni,
    J. S. O'Brien, J. M. Waldrop, A. Kumar, E. G. Hohenstein,
    B. P. Pritchard, B. R. Brooks, H. F. Schaefer III, A. Yu. Sokolov,
    K. Patkowski, A. E. DePrince III, U. Bozkaya, R. A. King,
    F. A. Evangelista, J. M. Turney, T. D. Crawford, C. D. Sherrill,
    J. Chem. Phys. 152(18) 184108 (2020). https://doi.org/10.1063/5.0006002

                            Additional Code Authors
    E. T. Seidl, C. L. Janssen, E. F. Valeev, M. L. Leininger,
    J. F. Gonthier, R. M. Richard, H. R. McAlexander, M. Saitow, X. Wang,
    P. Verma, M. H. Lechner, and A. Jiang

             Previous Authors, Complete List of Code Contributors,
                       and Citations for Specific Modules
    https://github.com/psi4/psi4/blob/master/codemeta.json
    https://github.com/psi4/psi4/graphs/contributors
    http://psicode.org/psi4manual/master/introduction.html#citing-psifour

    -----------------------------------------------------------------------


    Psi4 started on: Tuesday, 27 September 2022 06:25PM

    Process ID: 10544
    Host:       Lenovo-Y540-Zoha
    PSIDATADIR: C:\Users\64292\Anaconda3\envs\qm-tools\lib\share\psi4
    Memory:     476.8 MiB
    Threads:    1
    
  ==> Input QCSchema <==

--------------------------------------------------------------------------
{'driver': 'energy',
 'extras': {'psiapi': True, 'wfn_qcvars_only': True},
 'id': None,
 'keywords': {'function_kwargs': {}},
 'model': {'basis': 'aug-cc-pvdz', 'method': 'scf'},
 'molecule': {'atom_labels': ['1', '2', '3', '5', '6', '7'],
              'atomic_numbers': [8, 1, 1, 8, 1, 1],
              'fix_com': True,
              'fix_orientation': True,
              'fragment_charges': [0.0, 0.0],
              'fragment_multiplicities': [1, 1],
              'fragments': [[0, 1, 2], [3, 4, 5]],
              'geometry': [0.05118338925575477, 3.116050043131342, 0.0, 0.05118338925575477, 1.2263239176735146, 0.0,
                           -1.7781852282291912, 3.5898382770492736, 0.0, 0.05118338925575477, -2.931073558333708, 0.0,
                           -1.585367441585863, -3.875936621062623, 0.0, 1.687734220097374, -3.875936621062622, 0.0],
              'mass_numbers': [16, 1, 1, 16, 1, 1],
              'masses': [15.99491461957, 1.00782503223, 1.00782503223, 15.99491461957, 1.00782503223, 1.00782503223],
              'molecular_charge': 0.0,
              'molecular_multiplicity': 1,
              'name': 'H4O2',
              'provenance': {'creator': 'QCElemental',
                             'routine': 'qcelemental.molparse.from_string',
                             'version': 'v0.25.0'},
              'real': [False, False, False, True, True, True],
              'schema_name': 'qcschema_molecule',
              'schema_version': 2,
              'symbols': ['O', 'H', 'H', 'O', 'H', 'H'],
              'validated': True},
 'protocols': {'stdout': True},
 'provenance': {'creator': 'QCElemental', 'routine': 'qcelemental.models.results', 'version': 'v0.25.0'},
 'schema_name': 'qcschema_input',
 'schema_version': 1}
--------------------------------------------------------------------------

Scratch directory: C:\Users\64292\AppData\Local\Temp/

*** tstart() called on Lenovo-Y540-Zoha
*** at Tue Sep 27 18:44:57 2022

   => Loading Basis Set <=

    Name: AUG-CC-PVDZ
    Role: ORBITAL
    Keyword: BASIS
    atoms 1, 4     entry O          line   254 file C:\Users\64292\Anaconda3\envs\qm-tools\lib\share\psi4\basis\aug-cc-pvdz.gbs 
    atoms 2-3, 5-6 entry H          line    40 file C:\Users\64292\Anaconda3\envs\qm-tools\lib\share\psi4\basis\aug-cc-pvdz.gbs 


         ---------------------------------------------------------
                                   SCF
               by Justin Turney, Rob Parrish, Andy Simmonett
                          and Daniel G. A. Smith
                              RHF Reference
                        1 Threads,    476 MiB Core
         ---------------------------------------------------------

  ==> Geometry <==

    Molecular point group: cs
    Full point group: Cs

    Geometry (in Bohr), charge = 0, multiplicity = 1:

       Center              X                  Y                   Z               Mass       
    ------------   -----------------  -----------------  -----------------  -----------------
      Gh(O)           0.051183389256     3.116050043131     0.000000000000    15.994914619570
      Gh(H)           0.051183389256     1.226323917674     0.000000000000     1.007825032230
      Gh(H)          -1.778185228229     3.589838277049     0.000000000000     1.007825032230
         O            0.051183389256    -2.931073558334     0.000000000000    15.994914619570
         H           -1.585367441586    -3.875936621063     0.000000000000     1.007825032230
         H            1.687734220097    -3.875936621063     0.000000000000     1.007825032230

  Running in cs symmetry.

  Rotational constants: A =      7.04604  B =      0.17830  C =      0.17390 [cm^-1]
  Rotational constants: A = 211234.93409  B =   5345.16804  C =   5213.25000 [MHz]
  Nuclear repulsion =    8.772355975749338

  Charge       = 0
  Multiplicity = 1
  Electrons    = 10
  Nalpha       = 5
  Nbeta        = 5

  ==> Algorithm <==

  SCF Algorithm Type is DF.
  DIIS enabled.
  MOM disabled.
  Fractional occupation disabled.
  Guess Type is SAD.
  Energy threshold   = 1.00e-06
  Density threshold  = 1.00e-06
  Integral threshold = 1.00e-12

  ==> Primary Basis <==

  Basis Set: AUG-CC-PVDZ
    Blend: AUG-CC-PVDZ
    Number of shells: 38
    Number of basis functions: 82
    Number of Cartesian functions: 86
    Spherical Harmonics?: true
    Max angular momentum: 2

   => Loading Basis Set <=

    Name: (AUG-CC-PVDZ AUX)
    Role: JKFIT
    Keyword: DF_BASIS_SCF
    atoms 1, 4     entry O          line   270 file C:\Users\64292\Anaconda3\envs\qm-tools\lib\share\psi4\basis\aug-cc-pvdz-jkfit.gbs 
    atoms 2-3, 5-6 entry H          line    70 file C:\Users\64292\Anaconda3\envs\qm-tools\lib\share\psi4\basis\aug-cc-pvdz-jkfit.gbs 

  ==> Integral Setup <==

  DFHelper Memory: AOs need 0.017 GiB; user supplied 0.349 GiB. Using in-core AOs.

  ==> MemDFJK: Density-Fitted J/K Matrices <==

    J tasked:                   Yes
    K tasked:                   Yes
    wK tasked:                   No
    OpenMP threads:               1
    Memory [MiB]:               357
    Algorithm:                 Core
    Schwarz Cutoff:           1E-12
    Mask sparsity (%):       0.0000
    Fitting Condition:        1E-10

   => Auxiliary Basis Set <=

  Basis Set: (AUG-CC-PVDZ AUX)
    Blend: AUG-CC-PVDZ-JKFIT
    Number of shells: 104
    Number of basis functions: 300
    Number of Cartesian functions: 342
    Spherical Harmonics?: true
    Max angular momentum: 3

  Minimum eigenvalue in the overlap matrix is 2.0084769761E-03.
  Reciprocal condition number of the overlap matrix is 2.8383840946E-04.
    Using symmetric orthogonalization.

  ==> Pre-Iterations <==

  SCF Guess: Superposition of Atomic Densities via on-the-fly atomic UHF (no occupation information).

   -------------------------
    Irrep   Nso     Nmo    
   -------------------------
     A'        60      60 
     A"        22      22 
   -------------------------
    Total      82      82
   -------------------------

  ==> Iterations <==

                           Total Energy        Delta E     RMS |[F,P]|

   @DF-RHF iter SAD:   -75.40236280978836   -7.54024e+01   0.00000e+00 
   @DF-RHF iter   1:   -75.94509697057873   -5.42734e-01   7.06784e-03 DIIS/ADIIS
   @DF-RHF iter   2:   -75.99627998931528   -5.11830e-02   4.78609e-03 DIIS/ADIIS
   @DF-RHF iter   3:   -76.02936351164797   -3.30835e-02   3.65462e-04 DIIS/ADIIS
   @DF-RHF iter   4:   -76.02984240700668   -4.78895e-04   8.55480e-05 DIIS
   @DF-RHF iter   5:   -76.02987498274408   -3.25757e-05   2.09214e-05 DIIS
   @DF-RHF iter   6:   -76.02987806184187   -3.07910e-06   4.48411e-06 DIIS
   @DF-RHF iter   7:   -76.02987821659983   -1.54758e-07   8.22967e-07 DIIS
  Energy and wave function converged.


  ==> Post-Iterations <==

    Orbital Energies [Eh]
    ---------------------

    Doubly Occupied:                                                      

       1Ap   -20.575762     2Ap    -1.325835     3Ap    -0.721195  
       4Ap    -0.548246     1App   -0.500690  

    Virtual:                                                              

       5Ap     0.032662     6Ap     0.052565     7Ap     0.056082  
       8Ap     0.085288     2App    0.157036     9Ap     0.171977  
      10Ap     0.181635    11Ap     0.197840    12Ap     0.218017  
       3App    0.219135    13Ap     0.240409    14Ap     0.249831  
      15Ap     0.308905    16Ap     0.329115     4App    0.373129  
      17Ap     0.405096     5App    0.445388     6App    0.455057  
      18Ap     0.457497    19Ap     0.478922    20Ap     0.515657  
       7App    0.532112    21Ap     0.541469    22Ap     0.568841  
      23Ap     0.622485    24Ap     0.640221    25Ap     0.663452  
      26Ap     0.717735    27Ap     0.874947    28Ap     0.889029  
       8App    0.923766    29Ap     0.935154     9App    1.105328  
      30Ap     1.143221    10App    1.146346    31Ap     1.214321  
      32Ap     1.238095    33Ap     1.288237    11App    1.336511  
      34Ap     1.364084    12App    1.401243    35Ap     1.421880  
      36Ap     1.457528    13App    1.533466    37Ap     1.576433  
      38Ap     1.847249    39Ap     1.999297    14App    2.046300  
      15App    2.054081    40Ap     2.084315    41Ap     2.286253  
      16App    2.371494    42Ap     2.421703    43Ap     2.439931  
      17App    2.463313    44Ap     2.528844    45Ap     2.585882  
      46Ap     2.677943    47Ap     2.836045    48Ap     2.923315  
      49Ap     3.425586    18App    3.684413    19App    3.700858  
      50Ap     3.807098    51Ap     3.912070    52Ap     4.077623  
      53Ap     4.143699    54Ap     4.187548    20App    4.910024  
      55Ap     4.956496    21App    4.991118    56Ap     5.183905  
      57Ap     5.487432    22App    5.638368    58Ap     6.417772  
      59Ap     6.848563    60Ap    33.567866  

    Final Occupation by Irrep:
             Ap   App 
    DOCC [     4,    1 ]

  @DF-RHF Final Energy:   -76.02987821659983

   => Energetics <=

    Nuclear Repulsion Energy =              8.7723559757493383
    One-Electron Energy =                -122.2609747752572673
    Two-Electron Energy =                  37.4587405829080993
    Total Energy =                        -76.0298782165998261

Computation Completed


Properties will be evaluated at   0.000000,   0.000000,   0.000000 [a0]

Properties computed using the SCF density matrix


 Multipole Moments:

 ------------------------------------------------------------------------------------
     Multipole            Electronic (a.u.)      Nuclear  (a.u.)        Total (a.u.)
 ------------------------------------------------------------------------------------

 L = 1.  Multiply by 2.5417464519 to convert [e a0] to [Debye]
 Dipole X            :         -0.5116817            0.5118339            0.0001522
 Dipole Y            :         30.5141351          -31.2004617           -0.6863266
 Dipole Z            :          0.0000000            0.0000000            0.0000000
 Magnitude           :                                                    0.6863266

 ------------------------------------------------------------------------------------

*** tstop() called on Lenovo-Y540-Zoha at Tue Sep 27 18:44:58 2022
Module time:
	user time   =        nan seconds =        nan minutes
	system time =        nan seconds =        nan minutes
	total time  =          1 seconds =       0.02 minutes
Total time:
	user time   =        nan seconds =        nan minutes
	system time =        nan seconds =        nan minutes
	total time  =       1117 seconds =      18.62 minutes

    Psi4 stopped on: Tuesday, 27 September 2022 06:44PM
    Psi4 wall time for execution: 0:00:01.02


    -----------------------------------------------------------------------
          Psi4: An Open-Source Ab Initio Electronic Structure Package
                               Psi4 1.6.1 release

                         Git: Rev {HEAD} 5b9f6e3 


    D. G. A. Smith, L. A. Burns, A. C. Simmonett, R. M. Parrish,
    M. C. Schieber, R. Galvelis, P. Kraus, H. Kruse, R. Di Remigio,
    A. Alenaizan, A. M. James, S. Lehtola, J. P. Misiewicz, M. Scheurer,
    R. A. Shaw, J. B. Schriber, Y. Xie, Z. L. Glick, D. A. Sirianni,
    J. S. O'Brien, J. M. Waldrop, A. Kumar, E. G. Hohenstein,
    B. P. Pritchard, B. R. Brooks, H. F. Schaefer III, A. Yu. Sokolov,
    K. Patkowski, A. E. DePrince III, U. Bozkaya, R. A. King,
    F. A. Evangelista, J. M. Turney, T. D. Crawford, C. D. Sherrill,
    J. Chem. Phys. 152(18) 184108 (2020). https://doi.org/10.1063/5.0006002

                            Additional Code Authors
    E. T. Seidl, C. L. Janssen, E. F. Valeev, M. L. Leininger,
    J. F. Gonthier, R. M. Richard, H. R. McAlexander, M. Saitow, X. Wang,
    P. Verma, M. H. Lechner, and A. Jiang

             Previous Authors, Complete List of Code Contributors,
                       and Citations for Specific Modules
    https://github.com/psi4/psi4/blob/master/codemeta.json
    https://github.com/psi4/psi4/graphs/contributors
    http://psicode.org/psi4manual/master/introduction.html#citing-psifour

    -----------------------------------------------------------------------


    Psi4 started on: Tuesday, 27 September 2022 06:25PM

    Process ID: 10544
    Host:       Lenovo-Y540-Zoha
    PSIDATADIR: C:\Users\64292\Anaconda3\envs\qm-tools\lib\share\psi4
    Memory:     476.8 MiB
    Threads:    1
    
  ==> Input QCSchema <==

--------------------------------------------------------------------------
{'driver': 'energy',
 'extras': {'psiapi': True, 'wfn_qcvars_only': True},
 'id': None,
 'keywords': {'function_kwargs': {}},
 'model': {'basis': 'aug-cc-pvdz', 'method': 'scf'},
 'molecule': {'atom_labels': ['1', '2', '3', '5', '6', '7'],
              'atomic_numbers': [8, 1, 1, 8, 1, 1],
              'fix_com': True,
              'fix_orientation': True,
              'fragment_charges': [0.0, 0.0],
              'fragment_multiplicities': [1, 1],
              'fragments': [[0, 1, 2], [3, 4, 5]],
              'geometry': [0.05118338925575477, 3.116050043131342, 0.0, 0.05118338925575477, 1.2263239176735146, 0.0,
                           -1.7781852282291912, 3.5898382770492736, 0.0, 0.05118338925575477, -2.931073558333708, 0.0,
                           -1.585367441585863, -3.875936621062623, 0.0, 1.687734220097374, -3.875936621062622, 0.0],
              'mass_numbers': [16, 1, 1, 16, 1, 1],
              'masses': [15.99491461957, 1.00782503223, 1.00782503223, 15.99491461957, 1.00782503223, 1.00782503223],
              'molecular_charge': 0.0,
              'molecular_multiplicity': 1,
              'name': 'H4O2',
              'provenance': {'creator': 'QCElemental',
                             'routine': 'qcelemental.molparse.from_string',
                             'version': 'v0.25.0'},
              'real': [True, True, True, False, False, False],
              'schema_name': 'qcschema_molecule',
              'schema_version': 2,
              'symbols': ['O', 'H', 'H', 'O', 'H', 'H'],
              'validated': True},
 'protocols': {'stdout': True},
 'provenance': {'creator': 'QCElemental', 'routine': 'qcelemental.models.results', 'version': 'v0.25.0'},
 'schema_name': 'qcschema_input',
 'schema_version': 1}
--------------------------------------------------------------------------

Scratch directory: C:\Users\64292\AppData\Local\Temp/

*** tstart() called on Lenovo-Y540-Zoha
*** at Tue Sep 27 18:44:58 2022

   => Loading Basis Set <=

    Name: AUG-CC-PVDZ
    Role: ORBITAL
    Keyword: BASIS
    atoms 1, 4     entry O          line   254 file C:\Users\64292\Anaconda3\envs\qm-tools\lib\share\psi4\basis\aug-cc-pvdz.gbs 
    atoms 2-3, 5-6 entry H          line    40 file C:\Users\64292\Anaconda3\envs\qm-tools\lib\share\psi4\basis\aug-cc-pvdz.gbs 


         ---------------------------------------------------------
                                   SCF
               by Justin Turney, Rob Parrish, Andy Simmonett
                          and Daniel G. A. Smith
                              RHF Reference
                        1 Threads,    476 MiB Core
         ---------------------------------------------------------

  ==> Geometry <==

    Molecular point group: cs
    Full point group: Cs

    Geometry (in Bohr), charge = 0, multiplicity = 1:

       Center              X                  Y                   Z               Mass       
    ------------   -----------------  -----------------  -----------------  -----------------
         O            0.051183389256     3.116050043131     0.000000000000    15.994914619570
         H            0.051183389256     1.226323917674     0.000000000000     1.007825032230
         H           -1.778185228229     3.589838277049     0.000000000000     1.007825032230
      Gh(O)           0.051183389256    -2.931073558334     0.000000000000    15.994914619570
      Gh(H)          -1.585367441586    -3.875936621063     0.000000000000     1.007825032230
      Gh(H)           1.687734220097    -3.875936621063     0.000000000000     1.007825032230

  Running in cs symmetry.

  Rotational constants: A =      7.04604  B =      0.17830  C =      0.17390 [cm^-1]
  Rotational constants: A = 211234.93409  B =   5345.16804  C =   5213.25000 [MHz]
  Nuclear repulsion =    8.801420354575152

  Charge       = 0
  Multiplicity = 1
  Electrons    = 10
  Nalpha       = 5
  Nbeta        = 5

  ==> Algorithm <==

  SCF Algorithm Type is DF.
  DIIS enabled.
  MOM disabled.
  Fractional occupation disabled.
  Guess Type is SAD.
  Energy threshold   = 1.00e-06
  Density threshold  = 1.00e-06
  Integral threshold = 1.00e-12

  ==> Primary Basis <==

  Basis Set: AUG-CC-PVDZ
    Blend: AUG-CC-PVDZ
    Number of shells: 38
    Number of basis functions: 82
    Number of Cartesian functions: 86
    Spherical Harmonics?: true
    Max angular momentum: 2

   => Loading Basis Set <=

    Name: (AUG-CC-PVDZ AUX)
    Role: JKFIT
    Keyword: DF_BASIS_SCF
    atoms 1, 4     entry O          line   270 file C:\Users\64292\Anaconda3\envs\qm-tools\lib\share\psi4\basis\aug-cc-pvdz-jkfit.gbs 
    atoms 2-3, 5-6 entry H          line    70 file C:\Users\64292\Anaconda3\envs\qm-tools\lib\share\psi4\basis\aug-cc-pvdz-jkfit.gbs 

  ==> Integral Setup <==

  DFHelper Memory: AOs need 0.017 GiB; user supplied 0.349 GiB. Using in-core AOs.

  ==> MemDFJK: Density-Fitted J/K Matrices <==

    J tasked:                   Yes
    K tasked:                   Yes
    wK tasked:                   No
    OpenMP threads:               1
    Memory [MiB]:               357
    Algorithm:                 Core
    Schwarz Cutoff:           1E-12
    Mask sparsity (%):       0.0000
    Fitting Condition:        1E-10

   => Auxiliary Basis Set <=

  Basis Set: (AUG-CC-PVDZ AUX)
    Blend: AUG-CC-PVDZ-JKFIT
    Number of shells: 104
    Number of basis functions: 300
    Number of Cartesian functions: 342
    Spherical Harmonics?: true
    Max angular momentum: 3

  Minimum eigenvalue in the overlap matrix is 2.0084769761E-03.
  Reciprocal condition number of the overlap matrix is 2.8383840946E-04.
    Using symmetric orthogonalization.

  ==> Pre-Iterations <==

  SCF Guess: Superposition of Atomic Densities via on-the-fly atomic UHF (no occupation information).

   -------------------------
    Irrep   Nso     Nmo    
   -------------------------
     A'        60      60 
     A"        22      22 
   -------------------------
    Total      82      82
   -------------------------

  ==> Iterations <==

                           Total Energy        Delta E     RMS |[F,P]|

   @DF-RHF iter SAD:   -75.41487089608955   -7.54149e+01   0.00000e+00 
   @DF-RHF iter   1:   -75.94941326229880   -5.34542e-01   7.06409e-03 DIIS/ADIIS
   @DF-RHF iter   2:   -76.00129100351742   -5.18777e-02   4.84327e-03 DIIS/ADIIS
   @DF-RHF iter   3:   -76.03523544860259   -3.39444e-02   3.67624e-04 DIIS/ADIIS
   @DF-RHF iter   4:   -76.03569670522346   -4.61257e-04   8.46381e-05 DIIS
   @DF-RHF iter   5:   -76.03572685239236   -3.01472e-05   2.00767e-05 DIIS
   @DF-RHF iter   6:   -76.03572942968151   -2.57729e-06   3.96600e-06 DIIS
   @DF-RHF iter   7:   -76.03572953299856   -1.03317e-07   6.46580e-07 DIIS
  Energy and wave function converged.


  ==> Post-Iterations <==

    Orbital Energies [Eh]
    ---------------------

    Doubly Occupied:                                                      

       1Ap   -20.584248     2Ap    -1.335644     3Ap    -0.696505  
       4Ap    -0.577378     1App   -0.506073  

    Virtual:                                                              

       5Ap     0.024536     6Ap     0.048802     7Ap     0.058933  
       8Ap     0.082550     2App    0.137701     9Ap     0.141352  
      10Ap     0.177694    11Ap     0.194182     3App    0.218967  
      12Ap     0.224974    13Ap     0.228169    14Ap     0.267604  
      15Ap     0.320046    16Ap     0.350051    17Ap     0.380577  
       4App    0.395162    18Ap     0.406968     5App    0.416831  
       6App    0.436178    19Ap     0.461107    20Ap     0.468422  
       7App    0.488900    21Ap     0.500159    22Ap     0.541752  
      23Ap     0.581795    24Ap     0.629409    25Ap     0.650821  
      26Ap     0.765809    27Ap     0.826773     8App    0.903005  
      28Ap     0.945012    29Ap     1.031135     9App    1.107155  
      30Ap     1.142854    10App    1.167431    31Ap     1.195124  
      32Ap     1.205769    33Ap     1.277596    11App    1.291434  
      34Ap     1.308798    12App    1.333544    35Ap     1.347966  
      36Ap     1.420351    37Ap     1.504164    13App    1.542159  
      38Ap     1.713128    39Ap     1.992440    14App    1.992461  
      40Ap     2.051005    15App    2.087809    41Ap     2.306989  
      42Ap     2.363010    16App    2.380370    17App    2.390138  
      43Ap     2.425748    44Ap     2.461244    45Ap     2.581827  
      46Ap     2.738501    47Ap     2.876250    48Ap     2.985896  
      49Ap     3.388204    18App    3.674585    50Ap     3.706810  
      19App    3.717724    51Ap     3.923815    52Ap     3.951744  
      53Ap     4.052339    54Ap     4.266706    20App    4.876605  
      21App    4.940563    55Ap     5.037637    56Ap     5.324611  
      57Ap     5.328260    22App    5.577462    58Ap     6.307324  
      59Ap     6.811761    60Ap    33.526828  

    Final Occupation by Irrep:
             Ap   App 
    DOCC [     4,    1 ]

  @DF-RHF Final Energy:   -76.03572953299856

   => Energetics <=

    Nuclear Repulsion Energy =              8.8014203545751517
    One-Electron Energy =                -122.2745840168303459
    Two-Electron Energy =                  37.4374341292566299
    Total Energy =                        -76.0357295329985590

Computation Completed


Properties will be evaluated at   0.000000,   0.000000,   0.000000 [a0]

Properties computed using the SCF density matrix


 Multipole Moments:

 ------------------------------------------------------------------------------------
     Multipole            Electronic (a.u.)      Nuclear  (a.u.)        Total (a.u.)
 ------------------------------------------------------------------------------------

 L = 1.  Multiply by 2.5417464519 to convert [e a0] to [Debye]
 Dipole X            :          0.6853074           -1.3175347           -0.6322274
 Dipole Y            :        -30.2338350           29.7445625           -0.4892725
 Dipole Z            :          0.0000000            0.0000000            0.0000000
 Magnitude           :                                                    0.7994367

 ------------------------------------------------------------------------------------

*** tstop() called on Lenovo-Y540-Zoha at Tue Sep 27 18:44:59 2022
Module time:
	user time   =        nan seconds =        nan minutes
	system time =        nan seconds =        nan minutes
	total time  =          1 seconds =       0.02 minutes
Total time:
	user time   =        nan seconds =        nan minutes
	system time =        nan seconds =        nan minutes
	total time  =       1118 seconds =      18.63 minutes

    Psi4 stopped on: Tuesday, 27 September 2022 06:44PM
    Psi4 wall time for execution: 0:00:01.01


    -----------------------------------------------------------------------
          Psi4: An Open-Source Ab Initio Electronic Structure Package
                               Psi4 1.6.1 release

                         Git: Rev {HEAD} 5b9f6e3 


    D. G. A. Smith, L. A. Burns, A. C. Simmonett, R. M. Parrish,
    M. C. Schieber, R. Galvelis, P. Kraus, H. Kruse, R. Di Remigio,
    A. Alenaizan, A. M. James, S. Lehtola, J. P. Misiewicz, M. Scheurer,
    R. A. Shaw, J. B. Schriber, Y. Xie, Z. L. Glick, D. A. Sirianni,
    J. S. O'Brien, J. M. Waldrop, A. Kumar, E. G. Hohenstein,
    B. P. Pritchard, B. R. Brooks, H. F. Schaefer III, A. Yu. Sokolov,
    K. Patkowski, A. E. DePrince III, U. Bozkaya, R. A. King,
    F. A. Evangelista, J. M. Turney, T. D. Crawford, C. D. Sherrill,
    J. Chem. Phys. 152(18) 184108 (2020). https://doi.org/10.1063/5.0006002

                            Additional Code Authors
    E. T. Seidl, C. L. Janssen, E. F. Valeev, M. L. Leininger,
    J. F. Gonthier, R. M. Richard, H. R. McAlexander, M. Saitow, X. Wang,
    P. Verma, M. H. Lechner, and A. Jiang

             Previous Authors, Complete List of Code Contributors,
                       and Citations for Specific Modules
    https://github.com/psi4/psi4/blob/master/codemeta.json
    https://github.com/psi4/psi4/graphs/contributors
    http://psicode.org/psi4manual/master/introduction.html#citing-psifour

    -----------------------------------------------------------------------


    Psi4 started on: Tuesday, 27 September 2022 06:25PM

    Process ID: 10544
    Host:       Lenovo-Y540-Zoha
    PSIDATADIR: C:\Users\64292\Anaconda3\envs\qm-tools\lib\share\psi4
    Memory:     476.8 MiB
    Threads:    1
    
  ==> Input QCSchema <==

--------------------------------------------------------------------------
{'driver': 'energy',
 'extras': {'psiapi': True, 'wfn_qcvars_only': True},
 'id': None,
 'keywords': {'function_kwargs': {}},
 'model': {'basis': 'aug-cc-pvdz', 'method': 'scf'},
 'molecule': {'atom_labels': ['1', '2', '3', '5', '6', '7'],
              'atomic_numbers': [8, 1, 1, 8, 1, 1],
              'fix_com': True,
              'fix_orientation': True,
              'fragment_charges': [0.0, 0.0],
              'fragment_multiplicities': [1, 1],
              'fragments': [[0, 1, 2], [3, 4, 5]],
              'geometry': [0.05118338925575477, 3.116050043131342, 0.0, 0.05118338925575477, 1.2263239176735146, 0.0,
                           -1.7781852282291912, 3.5898382770492736, 0.0, 0.05118338925575477, -2.931073558333708, 0.0,
                           -1.585367441585863, -3.875936621062623, 0.0, 1.687734220097374, -3.875936621062622, 0.0],
              'mass_numbers': [16, 1, 1, 16, 1, 1],
              'masses': [15.99491461957, 1.00782503223, 1.00782503223, 15.99491461957, 1.00782503223, 1.00782503223],
              'molecular_charge': 0.0,
              'molecular_multiplicity': 1,
              'name': 'H4O2',
              'provenance': {'creator': 'QCElemental',
                             'routine': 'qcelemental.molparse.from_string',
                             'version': 'v0.25.0'},
              'real': [True, True, True, True, True, True],
              'schema_name': 'qcschema_molecule',
              'schema_version': 2,
              'symbols': ['O', 'H', 'H', 'O', 'H', 'H'],
              'validated': True},
 'protocols': {'stdout': True},
 'provenance': {'creator': 'QCElemental', 'routine': 'qcelemental.models.results', 'version': 'v0.25.0'},
 'schema_name': 'qcschema_input',
 'schema_version': 1}
--------------------------------------------------------------------------

Scratch directory: C:\Users\64292\AppData\Local\Temp/

*** tstart() called on Lenovo-Y540-Zoha
*** at Tue Sep 27 18:44:59 2022

   => Loading Basis Set <=

    Name: AUG-CC-PVDZ
    Role: ORBITAL
    Keyword: BASIS
    atoms 1, 4     entry O          line   254 file C:\Users\64292\Anaconda3\envs\qm-tools\lib\share\psi4\basis\aug-cc-pvdz.gbs 
    atoms 2-3, 5-6 entry H          line    40 file C:\Users\64292\Anaconda3\envs\qm-tools\lib\share\psi4\basis\aug-cc-pvdz.gbs 


         ---------------------------------------------------------
                                   SCF
               by Justin Turney, Rob Parrish, Andy Simmonett
                          and Daniel G. A. Smith
                              RHF Reference
                        1 Threads,    476 MiB Core
         ---------------------------------------------------------

  ==> Geometry <==

    Molecular point group: cs
    Full point group: Cs

    Geometry (in Bohr), charge = 0, multiplicity = 1:

       Center              X                  Y                   Z               Mass       
    ------------   -----------------  -----------------  -----------------  -----------------
         O            0.051183389256     3.116050043131     0.000000000000    15.994914619570
         H            0.051183389256     1.226323917674     0.000000000000     1.007825032230
         H           -1.778185228229     3.589838277049     0.000000000000     1.007825032230
         O            0.051183389256    -2.931073558334     0.000000000000    15.994914619570
         H           -1.585367441586    -3.875936621063     0.000000000000     1.007825032230
         H            1.687734220097    -3.875936621063     0.000000000000     1.007825032230

  Running in cs symmetry.

  Rotational constants: A =      7.04604  B =      0.17830  C =      0.17390 [cm^-1]
  Rotational constants: A = 211234.93409  B =   5345.16804  C =   5213.25000 [MHz]
  Nuclear repulsion =   34.119579958696782

  Charge       = 0
  Multiplicity = 1
  Electrons    = 20
  Nalpha       = 10
  Nbeta        = 10

  ==> Algorithm <==

  SCF Algorithm Type is DF.
  DIIS enabled.
  MOM disabled.
  Fractional occupation disabled.
  Guess Type is SAD.
  Energy threshold   = 1.00e-06
  Density threshold  = 1.00e-06
  Integral threshold = 1.00e-12

  ==> Primary Basis <==

  Basis Set: AUG-CC-PVDZ
    Blend: AUG-CC-PVDZ
    Number of shells: 38
    Number of basis functions: 82
    Number of Cartesian functions: 86
    Spherical Harmonics?: true
    Max angular momentum: 2

   => Loading Basis Set <=

    Name: (AUG-CC-PVDZ AUX)
    Role: JKFIT
    Keyword: DF_BASIS_SCF
    atoms 1, 4     entry O          line   270 file C:\Users\64292\Anaconda3\envs\qm-tools\lib\share\psi4\basis\aug-cc-pvdz-jkfit.gbs 
    atoms 2-3, 5-6 entry H          line    70 file C:\Users\64292\Anaconda3\envs\qm-tools\lib\share\psi4\basis\aug-cc-pvdz-jkfit.gbs 

  ==> Integral Setup <==

  DFHelper Memory: AOs need 0.017 GiB; user supplied 0.349 GiB. Using in-core AOs.

  ==> MemDFJK: Density-Fitted J/K Matrices <==

    J tasked:                   Yes
    K tasked:                   Yes
    wK tasked:                   No
    OpenMP threads:               1
    Memory [MiB]:               357
    Algorithm:                 Core
    Schwarz Cutoff:           1E-12
    Mask sparsity (%):       0.0000
    Fitting Condition:        1E-10

   => Auxiliary Basis Set <=

  Basis Set: (AUG-CC-PVDZ AUX)
    Blend: AUG-CC-PVDZ-JKFIT
    Number of shells: 104
    Number of basis functions: 300
    Number of Cartesian functions: 342
    Spherical Harmonics?: true
    Max angular momentum: 3

  Minimum eigenvalue in the overlap matrix is 2.0084769761E-03.
  Reciprocal condition number of the overlap matrix is 2.8383840946E-04.
    Using symmetric orthogonalization.

  ==> Pre-Iterations <==

  SCF Guess: Superposition of Atomic Densities via on-the-fly atomic UHF (no occupation information).

   -------------------------
    Irrep   Nso     Nmo    
   -------------------------
     A'        60      60 
     A"        22      22 
   -------------------------
    Total      82      82
   -------------------------

  ==> Iterations <==

                           Total Energy        Delta E     RMS |[F,P]|

   @DF-RHF iter SAD:  -150.86141792780327   -1.50861e+02   0.00000e+00 
   @DF-RHF iter   1:  -151.91060736897154   -1.04919e+00   9.71619e-03 DIIS/ADIIS
   @DF-RHF iter   2:  -152.01072176853532   -1.00114e-01   6.43793e-03 DIIS/ADIIS
   @DF-RHF iter   3:  -152.07035218963043   -5.96304e-02   5.42140e-04 DIIS/ADIIS
   @DF-RHF iter   4:  -152.07133064197561   -9.78452e-04   1.15419e-04 DIIS/ADIIS
   @DF-RHF iter   5:  -152.07138758299959   -5.69410e-05   3.37683e-05 DIIS
   @DF-RHF iter   6:  -152.07139296182862   -5.37883e-06   1.54066e-05 DIIS
   @DF-RHF iter   7:  -152.07139365367479   -6.91846e-07   3.34710e-06 DIIS
   @DF-RHF iter   8:  -152.07139372150118   -6.78264e-08   5.77442e-07 DIIS
  Energy and wave function converged.


  ==> Post-Iterations <==

    Orbital Energies [Eh]
    ---------------------

    Doubly Occupied:                                                      

       1Ap   -20.597144     2Ap   -20.556067     3Ap    -1.348588  
       4Ap    -1.309173     5Ap    -0.742852     6Ap    -0.673052  
       7Ap    -0.578838     8Ap    -0.546306     1App   -0.523387  
       2App   -0.479738  

    Virtual:                                                              

       9Ap     0.025891    10Ap     0.048996    11Ap     0.058354  
      12Ap     0.090851     3App    0.174351    13Ap     0.179819  
      14Ap     0.194696    15Ap     0.213591    16Ap     0.232821  
       4App    0.238288    17Ap     0.246518    18Ap     0.265741  
      19Ap     0.299778    20Ap     0.307659     5App    0.359956  
      21Ap     0.361891     6App    0.410151    22Ap     0.427638  
       7App    0.439310    23Ap     0.452268     8App    0.521921  
      24Ap     0.528077    25Ap     0.534371    26Ap     0.582138  
      27Ap     0.630207    28Ap     0.656145    29Ap     0.668326  
      30Ap     0.778255    31Ap     0.856012    32Ap     0.877575  
      33Ap     0.926010    34Ap     0.989497     9App    1.051196  
      10App    1.126221    11App    1.139511    35Ap     1.168082  
      36Ap     1.197491    12App    1.224643    37Ap     1.324818  
      38Ap     1.432756    13App    1.462196    39Ap     1.503512  
      40Ap     1.530565    14App    1.580744    41Ap     1.611816  
      42Ap     1.928392    43Ap     1.962388    15App    2.015089  
      16App    2.028290    44Ap     2.033283    17App    2.036259  
      18App    2.117690    45Ap     2.341585    46Ap     2.374037  
      47Ap     2.441043    48Ap     2.476955    49Ap     2.511052  
      50Ap     2.703964    51Ap     2.752794    52Ap     2.792859  
      53Ap     2.946579    54Ap     3.017542    19App    3.643260  
      20App    3.678889    21App    3.703779    55Ap     3.733676  
      56Ap     3.757315    22App    3.761256    57Ap     4.063522  
      58Ap     4.121454    59Ap     4.173343    60Ap     4.319867  

    Final Occupation by Irrep:
             Ap   App 
    DOCC [     8,    2 ]

  @DF-RHF Final Energy:  -152.07139372150118

   => Energetics <=

    Nuclear Repulsion Energy =             34.1195799586967823
    One-Electron Energy =                -277.6716349895731355
    Two-Electron Energy =                  91.4806613093751508
    Total Energy =                       -152.0713937215011811

Computation Completed


Properties will be evaluated at   0.000000,   0.000000,   0.000000 [a0]

Properties computed using the SCF density matrix


 Multipole Moments:

 ------------------------------------------------------------------------------------
     Multipole            Electronic (a.u.)      Nuclear  (a.u.)        Total (a.u.)
 ------------------------------------------------------------------------------------

 L = 1.  Multiply by 2.5417464519 to convert [e a0] to [Debye]
 Dipole X            :          0.1972301           -0.8057008           -0.6084707
 Dipole Y            :          0.0942833           -1.4558992           -1.3616159
 Dipole Z            :          0.0000000            0.0000000            0.0000000
 Magnitude           :                                                    1.4913868

 ------------------------------------------------------------------------------------

*** tstop() called on Lenovo-Y540-Zoha at Tue Sep 27 18:45:00 2022
Module time:
	user time   =        nan seconds =        nan minutes
	system time =        nan seconds =        nan minutes
	total time  =          1 seconds =       0.02 minutes
Total time:
	user time   =        nan seconds =        nan minutes
	system time =        nan seconds =        nan minutes
	total time  =       1119 seconds =      18.65 minutes

    Psi4 stopped on: Tuesday, 27 September 2022 06:45PM
    Psi4 wall time for execution: 0:00:01.04


  //>>>>>>>>>>>>>>>>>>>>>>>>>>>>>>>>>>>//
  //          ManyBody Results         //
  //<<<<<<<<<<<<<<<<<<<<<<<<<<<<<<<<<<<//


   ==> N-Body: Counterpoise Corrected (CP) energies <==

        n-Body     Total Energy            Interaction Energy                          N-body Contribution to Interaction Energy
                   [Eh]                    [Eh]                  [kcal/mol]            [Eh]                  [kcal/mol]
             1  N/A                         0.000000000000        0.000000000000        0.000000000000        0.000000000000
  FULL/RTN   2  N/A                        -0.005785971903       -3.630752184024       -0.005785971903       -3.630752184024

