
Scratch directory: C:\Users\64292\AppData\Local\Temp/

  //>>>>>>>>>>>>>>>>>>>>>>>>>>>>>>>>>>>>>//
  // ManyBody Setup: N-Body Levels [1, 2]//
  //<<<<<<<<<<<<<<<<<<<<<<<<<<<<<<<<<<<<<//

        Number of 1-body computations:     2
        Number of 2-body computations:     1

    -----------------------------------------------------------------------
          Psi4: An Open-Source Ab Initio Electronic Structure Package
                               Psi4 1.6.1 release

                         Git: Rev {HEAD} 5b9f6e3 


    D. G. A. Smith, L. A. Burns, A. C. Simmonett, R. M. Parrish,
    M. C. Schieber, R. Galvelis, P. Kraus, H. Kruse, R. Di Remigio,
    A. Alenaizan, A. M. James, S. Lehtola, J. P. Misiewicz, M. Scheurer,
    R. A. Shaw, J. B. Schriber, Y. Xie, Z. L. Glick, D. A. Sirianni,
    J. S. O'Brien, J. M. Waldrop, A. Kumar, E. G. Hohenstein,
    B. P. Pritchard, B. R. Brooks, H. F. Schaefer III, A. Yu. Sokolov,
    K. Patkowski, A. E. DePrince III, U. Bozkaya, R. A. King,
    F. A. Evangelista, J. M. Turney, T. D. Crawford, C. D. Sherrill,
    J. Chem. Phys. 152(18) 184108 (2020). https://doi.org/10.1063/5.0006002

                            Additional Code Authors
    E. T. Seidl, C. L. Janssen, E. F. Valeev, M. L. Leininger,
    J. F. Gonthier, R. M. Richard, H. R. McAlexander, M. Saitow, X. Wang,
    P. Verma, M. H. Lechner, and A. Jiang

             Previous Authors, Complete List of Code Contributors,
                       and Citations for Specific Modules
    https://github.com/psi4/psi4/blob/master/codemeta.json
    https://github.com/psi4/psi4/graphs/contributors
    http://psicode.org/psi4manual/master/introduction.html#citing-psifour

    -----------------------------------------------------------------------


    Psi4 started on: Tuesday, 27 September 2022 06:25PM

    Process ID: 10544
    Host:       Lenovo-Y540-Zoha
    PSIDATADIR: C:\Users\64292\Anaconda3\envs\qm-tools\lib\share\psi4
    Memory:     476.8 MiB
    Threads:    1
    
  ==> Input QCSchema <==

--------------------------------------------------------------------------
{'driver': 'energy',
 'extras': {'psiapi': True, 'wfn_qcvars_only': True},
 'id': None,
 'keywords': {'function_kwargs': {}},
 'model': {'basis': 'aug-cc-pvdz', 'method': 'scf'},
 'molecule': {'atom_labels': ['1', '2', '3', '5', '6', '7'],
              'atomic_numbers': [8, 1, 1, 8, 1, 1],
              'fix_com': True,
              'fix_orientation': True,
              'fragment_charges': [0.0, 0.0],
              'fragment_multiplicities': [1, 1],
              'fragments': [[0, 1, 2], [3, 4, 5]],
              'geometry': [4.9314301649168976e-17, -0.05118338925575476, -3.2105363494042334, 4.9314301649168976e-17,
                           -0.05118338925575476, -1.320810223946406, 4.9314301649168976e-17, 1.7781852282291912,
                           -3.684324583322165, 4.9314301649168976e-17, -0.05118338925575476, 3.0255598646065995,
                           1.5807867135447506, 0.3723871340444089, 3.970422927335512, -1.5807867135447524,
                           -0.47475391255592014, 3.970422927335511],
              'mass_numbers': [16, 1, 1, 16, 1, 1],
              'masses': [15.99491461957, 1.00782503223, 1.00782503223, 15.99491461957, 1.00782503223, 1.00782503223],
              'molecular_charge': 0.0,
              'molecular_multiplicity': 1,
              'name': 'H4O2',
              'provenance': {'creator': 'QCElemental',
                             'routine': 'qcelemental.molparse.from_string',
                             'version': 'v0.25.0'},
              'real': [False, False, False, True, True, True],
              'schema_name': 'qcschema_molecule',
              'schema_version': 2,
              'symbols': ['O', 'H', 'H', 'O', 'H', 'H'],
              'validated': True},
 'protocols': {'stdout': True},
 'provenance': {'creator': 'QCElemental', 'routine': 'qcelemental.models.results', 'version': 'v0.25.0'},
 'schema_name': 'qcschema_input',
 'schema_version': 1}
--------------------------------------------------------------------------

Scratch directory: C:\Users\64292\AppData\Local\Temp/

*** tstart() called on Lenovo-Y540-Zoha
*** at Tue Sep 27 18:47:36 2022

   => Loading Basis Set <=

    Name: AUG-CC-PVDZ
    Role: ORBITAL
    Keyword: BASIS
    atoms 1, 4     entry O          line   254 file C:\Users\64292\Anaconda3\envs\qm-tools\lib\share\psi4\basis\aug-cc-pvdz.gbs 
    atoms 2-3, 5-6 entry H          line    40 file C:\Users\64292\Anaconda3\envs\qm-tools\lib\share\psi4\basis\aug-cc-pvdz.gbs 


         ---------------------------------------------------------
                                   SCF
               by Justin Turney, Rob Parrish, Andy Simmonett
                          and Daniel G. A. Smith
                              RHF Reference
                        1 Threads,    476 MiB Core
         ---------------------------------------------------------

  ==> Geometry <==

    Molecular point group: c1
    Full point group: C1

    Geometry (in Bohr), charge = 0, multiplicity = 1:

       Center              X                  Y                   Z               Mass       
    ------------   -----------------  -----------------  -----------------  -----------------
      Gh(O)           0.000000000000    -0.051183389256    -3.210536349404    15.994914619570
      Gh(H)           0.000000000000    -0.051183389256    -1.320810223946     1.007825032230
      Gh(H)           0.000000000000     1.778185228229    -3.684324583322     1.007825032230
         O            0.000000000000    -0.051183389256     3.025559864607    15.994914619570
         H            1.580786713545     0.372387134044     3.970422927336     1.007825032230
         H           -1.580786713545    -0.474753912556     3.970422927336     1.007825032230

  Running in c1 symmetry.

  Rotational constants: A =      7.04342  B =      0.16660  C =      0.16518 [cm^-1]
  Rotational constants: A = 211156.34526  B =   4994.40071  C =   4951.90901 [MHz]
  Nuclear repulsion =    8.772355975749345

  Charge       = 0
  Multiplicity = 1
  Electrons    = 10
  Nalpha       = 5
  Nbeta        = 5

  ==> Algorithm <==

  SCF Algorithm Type is DF.
  DIIS enabled.
  MOM disabled.
  Fractional occupation disabled.
  Guess Type is SAD.
  Energy threshold   = 1.00e-06
  Density threshold  = 1.00e-06
  Integral threshold = 1.00e-12

  ==> Primary Basis <==

  Basis Set: AUG-CC-PVDZ
    Blend: AUG-CC-PVDZ
    Number of shells: 38
    Number of basis functions: 82
    Number of Cartesian functions: 86
    Spherical Harmonics?: true
    Max angular momentum: 2

   => Loading Basis Set <=

    Name: (AUG-CC-PVDZ AUX)
    Role: JKFIT
    Keyword: DF_BASIS_SCF
    atoms 1, 4     entry O          line   270 file C:\Users\64292\Anaconda3\envs\qm-tools\lib\share\psi4\basis\aug-cc-pvdz-jkfit.gbs 
    atoms 2-3, 5-6 entry H          line    70 file C:\Users\64292\Anaconda3\envs\qm-tools\lib\share\psi4\basis\aug-cc-pvdz-jkfit.gbs 

  ==> Integral Setup <==

  DFHelper Memory: AOs need 0.017 GiB; user supplied 0.349 GiB. Using in-core AOs.

  ==> MemDFJK: Density-Fitted J/K Matrices <==

    J tasked:                   Yes
    K tasked:                   Yes
    wK tasked:                   No
    OpenMP threads:               1
    Memory [MiB]:               357
    Algorithm:                 Core
    Schwarz Cutoff:           1E-12
    Mask sparsity (%):       0.0000
    Fitting Condition:        1E-10

   => Auxiliary Basis Set <=

  Basis Set: (AUG-CC-PVDZ AUX)
    Blend: AUG-CC-PVDZ-JKFIT
    Number of shells: 104
    Number of basis functions: 300
    Number of Cartesian functions: 342
    Spherical Harmonics?: true
    Max angular momentum: 3

  Minimum eigenvalue in the overlap matrix is 2.2263918193E-03.
  Reciprocal condition number of the overlap matrix is 3.2007434090E-04.
    Using symmetric orthogonalization.

  ==> Pre-Iterations <==

  SCF Guess: Superposition of Atomic Densities via on-the-fly atomic UHF (no occupation information).

   -------------------------
    Irrep   Nso     Nmo    
   -------------------------
     A         82      82 
   -------------------------
    Total      82      82
   -------------------------

  ==> Iterations <==

                           Total Energy        Delta E     RMS |[F,P]|

   @DF-RHF iter SAD:   -75.40236287713650   -7.54024e+01   0.00000e+00 
   @DF-RHF iter   1:   -75.94508072932855   -5.42718e-01   5.50785e-03 DIIS/ADIIS
   @DF-RHF iter   2:   -75.99626077217090   -5.11800e-02   3.72945e-03 DIIS/ADIIS
   @DF-RHF iter   3:   -76.02934871568714   -3.30879e-02   2.79169e-04 DIIS/ADIIS
   @DF-RHF iter   4:   -76.02981970997098   -4.70994e-04   6.67423e-05 DIIS
   @DF-RHF iter   5:   -76.02985230132538   -3.25914e-05   1.62925e-05 DIIS
   @DF-RHF iter   6:   -76.02985537509049   -3.07377e-06   3.49561e-06 DIIS
   @DF-RHF iter   7:   -76.02985552991564   -1.54825e-07   6.41559e-07 DIIS
  Energy and wave function converged.


  ==> Post-Iterations <==

    Orbital Energies [Eh]
    ---------------------

    Doubly Occupied:                                                      

       1A    -20.575762     2A     -1.325854     3A     -0.721202  
       4A     -0.548253     5A     -0.500715  

    Virtual:                                                              

       6A      0.032709     7A      0.053390     8A      0.055847  
       9A      0.079929    10A      0.165534    11A      0.168578  
      12A      0.181218    13A      0.197430    14A      0.210406  
      15A      0.226258    16A      0.234156    17A      0.253503  
      18A      0.310246    19A      0.327910    20A      0.372878  
      21A      0.396506    22A      0.428554    23A      0.451899  
      24A      0.456860    25A      0.500510    26A      0.516393  
      27A      0.525125    28A      0.545547    29A      0.560511  
      30A      0.603032    31A      0.649490    32A      0.655052  
      33A      0.691626    34A      0.850824    35A      0.877343  
      36A      0.921320    37A      0.941192    38A      1.123129  
      39A      1.146368    40A      1.152952    41A      1.196408  
      42A      1.238241    43A      1.278071    44A      1.332021  
      45A      1.359478    46A      1.380553    47A      1.425867  
      48A      1.458675    49A      1.529714    50A      1.560765  
      51A      1.879192    52A      1.980355    53A      2.046155  
      54A      2.051875    55A      2.056388    56A      2.267446  
      57A      2.366389    58A      2.405135    59A      2.446204  
      60A      2.466079    61A      2.522996    62A      2.562888  
      63A      2.705875    64A      2.771824    65A      2.908343  
      66A      3.418464    67A      3.690508    68A      3.700847  
      69A      3.788143    70A      3.902705    71A      4.073065  
      72A      4.143376    73A      4.179480    74A      4.909786  
      75A      4.954705    76A      4.996154    77A      5.157383  
      78A      5.476732    79A      5.659033    80A      6.397610  
      81A      6.838734    82A     33.566252  

    Final Occupation by Irrep:
              A 
    DOCC [     5 ]

  @DF-RHF Final Energy:   -76.02985552991564

   => Energetics <=

    Nuclear Repulsion Energy =              8.7723559757493454
    One-Electron Energy =                -122.2608164268719975
    Two-Electron Energy =                  37.4586049212070122
    Total Energy =                        -76.0298555299156362

Computation Completed


Properties will be evaluated at   0.000000,   0.000000,   0.000000 [a0]

Properties computed using the SCF density matrix


 Multipole Moments:

 ------------------------------------------------------------------------------------
     Multipole            Electronic (a.u.)      Nuclear  (a.u.)        Total (a.u.)
 ------------------------------------------------------------------------------------

 L = 1.  Multiply by 2.5417464519 to convert [e a0] to [Debye]
 Dipole X            :          0.0000450           -0.0000000            0.0000450
 Dipole Y            :          0.5116642           -0.5118339           -0.0001697
 Dipole Z            :        -31.4585350           32.1453248            0.6867897
 Magnitude           :                                                    0.6867898

 ------------------------------------------------------------------------------------

*** tstop() called on Lenovo-Y540-Zoha at Tue Sep 27 18:47:37 2022
Module time:
	user time   =        nan seconds =        nan minutes
	system time =        nan seconds =        nan minutes
	total time  =          1 seconds =       0.02 minutes
Total time:
	user time   =        nan seconds =        nan minutes
	system time =        nan seconds =        nan minutes
	total time  =       1276 seconds =      21.27 minutes

    Psi4 stopped on: Tuesday, 27 September 2022 06:47PM
    Psi4 wall time for execution: 0:00:01.13


    -----------------------------------------------------------------------
          Psi4: An Open-Source Ab Initio Electronic Structure Package
                               Psi4 1.6.1 release

                         Git: Rev {HEAD} 5b9f6e3 


    D. G. A. Smith, L. A. Burns, A. C. Simmonett, R. M. Parrish,
    M. C. Schieber, R. Galvelis, P. Kraus, H. Kruse, R. Di Remigio,
    A. Alenaizan, A. M. James, S. Lehtola, J. P. Misiewicz, M. Scheurer,
    R. A. Shaw, J. B. Schriber, Y. Xie, Z. L. Glick, D. A. Sirianni,
    J. S. O'Brien, J. M. Waldrop, A. Kumar, E. G. Hohenstein,
    B. P. Pritchard, B. R. Brooks, H. F. Schaefer III, A. Yu. Sokolov,
    K. Patkowski, A. E. DePrince III, U. Bozkaya, R. A. King,
    F. A. Evangelista, J. M. Turney, T. D. Crawford, C. D. Sherrill,
    J. Chem. Phys. 152(18) 184108 (2020). https://doi.org/10.1063/5.0006002

                            Additional Code Authors
    E. T. Seidl, C. L. Janssen, E. F. Valeev, M. L. Leininger,
    J. F. Gonthier, R. M. Richard, H. R. McAlexander, M. Saitow, X. Wang,
    P. Verma, M. H. Lechner, and A. Jiang

             Previous Authors, Complete List of Code Contributors,
                       and Citations for Specific Modules
    https://github.com/psi4/psi4/blob/master/codemeta.json
    https://github.com/psi4/psi4/graphs/contributors
    http://psicode.org/psi4manual/master/introduction.html#citing-psifour

    -----------------------------------------------------------------------


    Psi4 started on: Tuesday, 27 September 2022 06:25PM

    Process ID: 10544
    Host:       Lenovo-Y540-Zoha
    PSIDATADIR: C:\Users\64292\Anaconda3\envs\qm-tools\lib\share\psi4
    Memory:     476.8 MiB
    Threads:    1
    
  ==> Input QCSchema <==

--------------------------------------------------------------------------
{'driver': 'energy',
 'extras': {'psiapi': True, 'wfn_qcvars_only': True},
 'id': None,
 'keywords': {'function_kwargs': {}},
 'model': {'basis': 'aug-cc-pvdz', 'method': 'scf'},
 'molecule': {'atom_labels': ['1', '2', '3', '5', '6', '7'],
              'atomic_numbers': [8, 1, 1, 8, 1, 1],
              'fix_com': True,
              'fix_orientation': True,
              'fragment_charges': [0.0, 0.0],
              'fragment_multiplicities': [1, 1],
              'fragments': [[0, 1, 2], [3, 4, 5]],
              'geometry': [4.9314301649168976e-17, -0.05118338925575476, -3.2105363494042334, 4.9314301649168976e-17,
                           -0.05118338925575476, -1.320810223946406, 4.9314301649168976e-17, 1.7781852282291912,
                           -3.684324583322165, 4.9314301649168976e-17, -0.05118338925575476, 3.0255598646065995,
                           1.5807867135447506, 0.3723871340444089, 3.970422927335512, -1.5807867135447524,
                           -0.47475391255592014, 3.970422927335511],
              'mass_numbers': [16, 1, 1, 16, 1, 1],
              'masses': [15.99491461957, 1.00782503223, 1.00782503223, 15.99491461957, 1.00782503223, 1.00782503223],
              'molecular_charge': 0.0,
              'molecular_multiplicity': 1,
              'name': 'H4O2',
              'provenance': {'creator': 'QCElemental',
                             'routine': 'qcelemental.molparse.from_string',
                             'version': 'v0.25.0'},
              'real': [True, True, True, False, False, False],
              'schema_name': 'qcschema_molecule',
              'schema_version': 2,
              'symbols': ['O', 'H', 'H', 'O', 'H', 'H'],
              'validated': True},
 'protocols': {'stdout': True},
 'provenance': {'creator': 'QCElemental', 'routine': 'qcelemental.models.results', 'version': 'v0.25.0'},
 'schema_name': 'qcschema_input',
 'schema_version': 1}
--------------------------------------------------------------------------

Scratch directory: C:\Users\64292\AppData\Local\Temp/

*** tstart() called on Lenovo-Y540-Zoha
*** at Tue Sep 27 18:47:38 2022

   => Loading Basis Set <=

    Name: AUG-CC-PVDZ
    Role: ORBITAL
    Keyword: BASIS
    atoms 1, 4     entry O          line   254 file C:\Users\64292\Anaconda3\envs\qm-tools\lib\share\psi4\basis\aug-cc-pvdz.gbs 
    atoms 2-3, 5-6 entry H          line    40 file C:\Users\64292\Anaconda3\envs\qm-tools\lib\share\psi4\basis\aug-cc-pvdz.gbs 


         ---------------------------------------------------------
                                   SCF
               by Justin Turney, Rob Parrish, Andy Simmonett
                          and Daniel G. A. Smith
                              RHF Reference
                        1 Threads,    476 MiB Core
         ---------------------------------------------------------

  ==> Geometry <==

    Molecular point group: c1
    Full point group: C1

    Geometry (in Bohr), charge = 0, multiplicity = 1:

       Center              X                  Y                   Z               Mass       
    ------------   -----------------  -----------------  -----------------  -----------------
         O            0.000000000000    -0.051183389256    -3.210536349404    15.994914619570
         H            0.000000000000    -0.051183389256    -1.320810223946     1.007825032230
         H            0.000000000000     1.778185228229    -3.684324583322     1.007825032230
      Gh(O)           0.000000000000    -0.051183389256     3.025559864607    15.994914619570
      Gh(H)           1.580786713545     0.372387134044     3.970422927336     1.007825032230
      Gh(H)          -1.580786713545    -0.474753912556     3.970422927336     1.007825032230

  Running in c1 symmetry.

  Rotational constants: A =      7.04342  B =      0.16660  C =      0.16518 [cm^-1]
  Rotational constants: A = 211156.34526  B =   4994.40071  C =   4951.90901 [MHz]
  Nuclear repulsion =    8.801420354575152

  Charge       = 0
  Multiplicity = 1
  Electrons    = 10
  Nalpha       = 5
  Nbeta        = 5

  ==> Algorithm <==

  SCF Algorithm Type is DF.
  DIIS enabled.
  MOM disabled.
  Fractional occupation disabled.
  Guess Type is SAD.
  Energy threshold   = 1.00e-06
  Density threshold  = 1.00e-06
  Integral threshold = 1.00e-12

  ==> Primary Basis <==

  Basis Set: AUG-CC-PVDZ
    Blend: AUG-CC-PVDZ
    Number of shells: 38
    Number of basis functions: 82
    Number of Cartesian functions: 86
    Spherical Harmonics?: true
    Max angular momentum: 2

   => Loading Basis Set <=

    Name: (AUG-CC-PVDZ AUX)
    Role: JKFIT
    Keyword: DF_BASIS_SCF
    atoms 1, 4     entry O          line   270 file C:\Users\64292\Anaconda3\envs\qm-tools\lib\share\psi4\basis\aug-cc-pvdz-jkfit.gbs 
    atoms 2-3, 5-6 entry H          line    70 file C:\Users\64292\Anaconda3\envs\qm-tools\lib\share\psi4\basis\aug-cc-pvdz-jkfit.gbs 

  ==> Integral Setup <==

  DFHelper Memory: AOs need 0.017 GiB; user supplied 0.349 GiB. Using in-core AOs.

  ==> MemDFJK: Density-Fitted J/K Matrices <==

    J tasked:                   Yes
    K tasked:                   Yes
    wK tasked:                   No
    OpenMP threads:               1
    Memory [MiB]:               357
    Algorithm:                 Core
    Schwarz Cutoff:           1E-12
    Mask sparsity (%):       0.0000
    Fitting Condition:        1E-10

   => Auxiliary Basis Set <=

  Basis Set: (AUG-CC-PVDZ AUX)
    Blend: AUG-CC-PVDZ-JKFIT
    Number of shells: 104
    Number of basis functions: 300
    Number of Cartesian functions: 342
    Spherical Harmonics?: true
    Max angular momentum: 3

  Minimum eigenvalue in the overlap matrix is 2.2263918193E-03.
  Reciprocal condition number of the overlap matrix is 3.2007434090E-04.
    Using symmetric orthogonalization.

  ==> Pre-Iterations <==

  SCF Guess: Superposition of Atomic Densities via on-the-fly atomic UHF (no occupation information).

   -------------------------
    Irrep   Nso     Nmo    
   -------------------------
     A         82      82 
   -------------------------
    Total      82      82
   -------------------------

  ==> Iterations <==

                           Total Energy        Delta E     RMS |[F,P]|

   @DF-RHF iter SAD:   -75.41487093425226   -7.54149e+01   0.00000e+00 
   @DF-RHF iter   1:   -75.94941010971262   -5.34539e-01   5.50527e-03 DIIS/ADIIS
   @DF-RHF iter   2:   -76.00128755302158   -5.18774e-02   3.77464e-03 DIIS/ADIIS
   @DF-RHF iter   3:   -76.03524014447288   -3.39526e-02   2.81147e-04 DIIS/ADIIS
   @DF-RHF iter   4:   -76.03569365162859   -4.53507e-04   6.60304e-05 DIIS
   @DF-RHF iter   5:   -76.03572380271132   -3.01511e-05   1.56282e-05 DIIS
   @DF-RHF iter   6:   -76.03572637328001   -2.57057e-06   3.09182e-06 DIIS
   @DF-RHF iter   7:   -76.03572647663620   -1.03356e-07   5.04656e-07 DIIS
  Energy and wave function converged.


  ==> Post-Iterations <==

    Orbital Energies [Eh]
    ---------------------

    Doubly Occupied:                                                      

       1A    -20.584250     2A     -1.335639     3A     -0.696501  
       4A     -0.577376     5A     -0.506081  

    Virtual:                                                              

       6A      0.024641     7A      0.049607     8A      0.057920  
       9A      0.077671    10A      0.133976    11A      0.150269  
      12A      0.182858    13A      0.187522    14A      0.218645  
      15A      0.222684    16A      0.228415    17A      0.264916  
      18A      0.322593    19A      0.361706    20A      0.363681  
      21A      0.380331    22A      0.404262    23A      0.418698  
      24A      0.420385    25A      0.461634    26A      0.488296  
      27A      0.499922    28A      0.519000    29A      0.532158  
      30A      0.559558    31A      0.605833    32A      0.646561  
      33A      0.731790    34A      0.818443    35A      0.902580  
      36A      0.951219    37A      1.034702    38A      1.104843  
      39A      1.142459    40A      1.166332    41A      1.195148  
      42A      1.201180    43A      1.273785    44A      1.297616  
      45A      1.306039    46A      1.334719    47A      1.336678  
      48A      1.418084    49A      1.487896    50A      1.546083  
      51A      1.688570    52A      1.986840    53A      1.991381  
      54A      2.064731    55A      2.081950    56A      2.336423  
      57A      2.363376    58A      2.381230    59A      2.387619  
      60A      2.397618    61A      2.430844    62A      2.600349  
      63A      2.720495    64A      2.842345    65A      2.983128  
      66A      3.385605    67A      3.674607    68A      3.700569  
      69A      3.721622    70A      3.907371    71A      3.937134  
      72A      4.029865    73A      4.252873    74A      4.884629  
      75A      4.942182    76A      5.019358    77A      5.313285  
      78A      5.325305    79A      5.580283    80A      6.290287  
      81A      6.811812    82A     33.527720  

    Final Occupation by Irrep:
              A 
    DOCC [     5 ]

  @DF-RHF Final Energy:   -76.03572647663620

   => Energetics <=

    Nuclear Repulsion Energy =              8.8014203545751517
    One-Electron Energy =                -122.2745779948231188
    Two-Electron Energy =                  37.4374311636117625
    Total Energy =                        -76.0357264766361993

Computation Completed


Properties will be evaluated at   0.000000,   0.000000,   0.000000 [a0]

Properties computed using the SCF density matrix


 Multipole Moments:

 ------------------------------------------------------------------------------------
     Multipole            Electronic (a.u.)      Nuclear  (a.u.)        Total (a.u.)
 ------------------------------------------------------------------------------------

 L = 1.  Multiply by 2.5417464519 to convert [e a0] to [Debye]
 Dipole X            :          0.0000350            0.0000000            0.0000350
 Dipole Y            :         -0.6853533            1.3175347            0.6321814
 Dipole Z            :         31.1786152          -30.6894256            0.4891896
 Magnitude           :                                                    0.7993496

 ------------------------------------------------------------------------------------

*** tstop() called on Lenovo-Y540-Zoha at Tue Sep 27 18:47:39 2022
Module time:
	user time   =        nan seconds =        nan minutes
	system time =        nan seconds =        nan minutes
	total time  =          1 seconds =       0.02 minutes
Total time:
	user time   =        nan seconds =        nan minutes
	system time =        nan seconds =        nan minutes
	total time  =       1278 seconds =      21.30 minutes

    Psi4 stopped on: Tuesday, 27 September 2022 06:47PM
    Psi4 wall time for execution: 0:00:01.09


    -----------------------------------------------------------------------
          Psi4: An Open-Source Ab Initio Electronic Structure Package
                               Psi4 1.6.1 release

                         Git: Rev {HEAD} 5b9f6e3 


    D. G. A. Smith, L. A. Burns, A. C. Simmonett, R. M. Parrish,
    M. C. Schieber, R. Galvelis, P. Kraus, H. Kruse, R. Di Remigio,
    A. Alenaizan, A. M. James, S. Lehtola, J. P. Misiewicz, M. Scheurer,
    R. A. Shaw, J. B. Schriber, Y. Xie, Z. L. Glick, D. A. Sirianni,
    J. S. O'Brien, J. M. Waldrop, A. Kumar, E. G. Hohenstein,
    B. P. Pritchard, B. R. Brooks, H. F. Schaefer III, A. Yu. Sokolov,
    K. Patkowski, A. E. DePrince III, U. Bozkaya, R. A. King,
    F. A. Evangelista, J. M. Turney, T. D. Crawford, C. D. Sherrill,
    J. Chem. Phys. 152(18) 184108 (2020). https://doi.org/10.1063/5.0006002

                            Additional Code Authors
    E. T. Seidl, C. L. Janssen, E. F. Valeev, M. L. Leininger,
    J. F. Gonthier, R. M. Richard, H. R. McAlexander, M. Saitow, X. Wang,
    P. Verma, M. H. Lechner, and A. Jiang

             Previous Authors, Complete List of Code Contributors,
                       and Citations for Specific Modules
    https://github.com/psi4/psi4/blob/master/codemeta.json
    https://github.com/psi4/psi4/graphs/contributors
    http://psicode.org/psi4manual/master/introduction.html#citing-psifour

    -----------------------------------------------------------------------


    Psi4 started on: Tuesday, 27 September 2022 06:25PM

    Process ID: 10544
    Host:       Lenovo-Y540-Zoha
    PSIDATADIR: C:\Users\64292\Anaconda3\envs\qm-tools\lib\share\psi4
    Memory:     476.8 MiB
    Threads:    1
    
  ==> Input QCSchema <==

--------------------------------------------------------------------------
{'driver': 'energy',
 'extras': {'psiapi': True, 'wfn_qcvars_only': True},
 'id': None,
 'keywords': {'function_kwargs': {}},
 'model': {'basis': 'aug-cc-pvdz', 'method': 'scf'},
 'molecule': {'atom_labels': ['1', '2', '3', '5', '6', '7'],
              'atomic_numbers': [8, 1, 1, 8, 1, 1],
              'fix_com': True,
              'fix_orientation': True,
              'fragment_charges': [0.0, 0.0],
              'fragment_multiplicities': [1, 1],
              'fragments': [[0, 1, 2], [3, 4, 5]],
              'geometry': [4.9314301649168976e-17, -0.05118338925575476, -3.2105363494042334, 4.9314301649168976e-17,
                           -0.05118338925575476, -1.320810223946406, 4.9314301649168976e-17, 1.7781852282291912,
                           -3.684324583322165, 4.9314301649168976e-17, -0.05118338925575476, 3.0255598646065995,
                           1.5807867135447506, 0.3723871340444089, 3.970422927335512, -1.5807867135447524,
                           -0.47475391255592014, 3.970422927335511],
              'mass_numbers': [16, 1, 1, 16, 1, 1],
              'masses': [15.99491461957, 1.00782503223, 1.00782503223, 15.99491461957, 1.00782503223, 1.00782503223],
              'molecular_charge': 0.0,
              'molecular_multiplicity': 1,
              'name': 'H4O2',
              'provenance': {'creator': 'QCElemental',
                             'routine': 'qcelemental.molparse.from_string',
                             'version': 'v0.25.0'},
              'real': [True, True, True, True, True, True],
              'schema_name': 'qcschema_molecule',
              'schema_version': 2,
              'symbols': ['O', 'H', 'H', 'O', 'H', 'H'],
              'validated': True},
 'protocols': {'stdout': True},
 'provenance': {'creator': 'QCElemental', 'routine': 'qcelemental.models.results', 'version': 'v0.25.0'},
 'schema_name': 'qcschema_input',
 'schema_version': 1}
--------------------------------------------------------------------------

Scratch directory: C:\Users\64292\AppData\Local\Temp/

*** tstart() called on Lenovo-Y540-Zoha
*** at Tue Sep 27 18:47:39 2022

   => Loading Basis Set <=

    Name: AUG-CC-PVDZ
    Role: ORBITAL
    Keyword: BASIS
    atoms 1, 4     entry O          line   254 file C:\Users\64292\Anaconda3\envs\qm-tools\lib\share\psi4\basis\aug-cc-pvdz.gbs 
    atoms 2-3, 5-6 entry H          line    40 file C:\Users\64292\Anaconda3\envs\qm-tools\lib\share\psi4\basis\aug-cc-pvdz.gbs 


         ---------------------------------------------------------
                                   SCF
               by Justin Turney, Rob Parrish, Andy Simmonett
                          and Daniel G. A. Smith
                              RHF Reference
                        1 Threads,    476 MiB Core
         ---------------------------------------------------------

  ==> Geometry <==

    Molecular point group: c1
    Full point group: C1

    Geometry (in Bohr), charge = 0, multiplicity = 1:

       Center              X                  Y                   Z               Mass       
    ------------   -----------------  -----------------  -----------------  -----------------
         O            0.000000000000    -0.051183389256    -3.210536349404    15.994914619570
         H            0.000000000000    -0.051183389256    -1.320810223946     1.007825032230
         H            0.000000000000     1.778185228229    -3.684324583322     1.007825032230
         O            0.000000000000    -0.051183389256     3.025559864607    15.994914619570
         H            1.580786713545     0.372387134044     3.970422927336     1.007825032230
         H           -1.580786713545    -0.474753912556     3.970422927336     1.007825032230

  Running in c1 symmetry.

  Rotational constants: A =      7.04342  B =      0.16660  C =      0.16518 [cm^-1]
  Rotational constants: A = 211156.34526  B =   4994.40071  C =   4951.90901 [MHz]
  Nuclear repulsion =   33.609878829699667

  Charge       = 0
  Multiplicity = 1
  Electrons    = 20
  Nalpha       = 10
  Nbeta        = 10

  ==> Algorithm <==

  SCF Algorithm Type is DF.
  DIIS enabled.
  MOM disabled.
  Fractional occupation disabled.
  Guess Type is SAD.
  Energy threshold   = 1.00e-06
  Density threshold  = 1.00e-06
  Integral threshold = 1.00e-12

  ==> Primary Basis <==

  Basis Set: AUG-CC-PVDZ
    Blend: AUG-CC-PVDZ
    Number of shells: 38
    Number of basis functions: 82
    Number of Cartesian functions: 86
    Spherical Harmonics?: true
    Max angular momentum: 2

   => Loading Basis Set <=

    Name: (AUG-CC-PVDZ AUX)
    Role: JKFIT
    Keyword: DF_BASIS_SCF
    atoms 1, 4     entry O          line   270 file C:\Users\64292\Anaconda3\envs\qm-tools\lib\share\psi4\basis\aug-cc-pvdz-jkfit.gbs 
    atoms 2-3, 5-6 entry H          line    70 file C:\Users\64292\Anaconda3\envs\qm-tools\lib\share\psi4\basis\aug-cc-pvdz-jkfit.gbs 

  ==> Integral Setup <==

  DFHelper Memory: AOs need 0.017 GiB; user supplied 0.349 GiB. Using in-core AOs.

  ==> MemDFJK: Density-Fitted J/K Matrices <==

    J tasked:                   Yes
    K tasked:                   Yes
    wK tasked:                   No
    OpenMP threads:               1
    Memory [MiB]:               357
    Algorithm:                 Core
    Schwarz Cutoff:           1E-12
    Mask sparsity (%):       0.0000
    Fitting Condition:        1E-10

   => Auxiliary Basis Set <=

  Basis Set: (AUG-CC-PVDZ AUX)
    Blend: AUG-CC-PVDZ-JKFIT
    Number of shells: 104
    Number of basis functions: 300
    Number of Cartesian functions: 342
    Spherical Harmonics?: true
    Max angular momentum: 3

  Minimum eigenvalue in the overlap matrix is 2.2263918193E-03.
  Reciprocal condition number of the overlap matrix is 3.2007434090E-04.
    Using symmetric orthogonalization.

  ==> Pre-Iterations <==

  SCF Guess: Superposition of Atomic Densities via on-the-fly atomic UHF (no occupation information).

   -------------------------
    Irrep   Nso     Nmo    
   -------------------------
     A         82      82 
   -------------------------
    Total      82      82
   -------------------------

  ==> Iterations <==

                           Total Energy        Delta E     RMS |[F,P]|

   @DF-RHF iter SAD:  -150.85230773722128   -1.50852e+02   0.00000e+00 
   @DF-RHF iter   1:  -151.90973773473777   -1.05743e+00   7.59655e-03 DIIS/ADIIS
   @DF-RHF iter   2:  -152.00991127615745   -1.00174e-01   5.05375e-03 DIIS/ADIIS
   @DF-RHF iter   3:  -152.07045611560400   -6.05448e-02   4.07313e-04 DIIS/ADIIS
   @DF-RHF iter   4:  -152.07139824582649   -9.42130e-04   8.97586e-05 DIIS
   @DF-RHF iter   5:  -152.07145491924317   -5.66734e-05   2.51627e-05 DIIS
   @DF-RHF iter   6:  -152.07146017086239   -5.25162e-06   1.12484e-05 DIIS
   @DF-RHF iter   7:  -152.07146077095342   -6.00091e-07   2.66579e-06 DIIS
   @DF-RHF iter   8:  -152.07146083991256   -6.89591e-08   4.46292e-07 DIIS
  Energy and wave function converged.


  ==> Post-Iterations <==

    Orbital Energies [Eh]
    ---------------------

    Doubly Occupied:                                                      

       1A    -20.595598     2A    -20.558584     3A     -1.346644  
       4A     -1.311278     5A     -0.741022     6A     -0.673997  
       7A     -0.576372     8A     -0.549163     9A     -0.521440  
      10A     -0.482112  

    Virtual:                                                              

      11A      0.026688    12A      0.051428    13A      0.055295  
      14A      0.087724    15A      0.175069    16A      0.184649  
      17A      0.201081    18A      0.209834    19A      0.224421  
      20A      0.235652    21A      0.245674    22A      0.277998  
      23A      0.297336    24A      0.308903    25A      0.340646  
      26A      0.361301    27A      0.392911    28A      0.421932  
      29A      0.433418    30A      0.486473    31A      0.503682  
      32A      0.527926    33A      0.541541    34A      0.583354  
      35A      0.628644    36A      0.642336    37A      0.663319  
      38A      0.771343    39A      0.831314    40A      0.857864  
      41A      0.901781    42A      0.974407    43A      1.093352  
      44A      1.127807    45A      1.131900    46A      1.185289  
      47A      1.201913    48A      1.207302    49A      1.344770  
      50A      1.420875    51A      1.454675    52A      1.487492  
      53A      1.508381    54A      1.594139    55A      1.610775  
      56A      1.898609    57A      1.953718    58A      2.013976  
      59A      2.019463    60A      2.032298    61A      2.037573  
      62A      2.111264    63A      2.356761    64A      2.397233  
      65A      2.413426    66A      2.466444    67A      2.512838  
      68A      2.683067    69A      2.743276    70A      2.762616  
      71A      2.924078    72A      3.008625    73A      3.658952  
      74A      3.680627    75A      3.699192    76A      3.733445  
      77A      3.744197    78A      3.753982    79A      4.054901  
      80A      4.122885    81A      4.163096    82A      4.293622  

    Final Occupation by Irrep:
              A 
    DOCC [    10 ]

  @DF-RHF Final Energy:  -152.07146083991256

   => Energetics <=

    Nuclear Repulsion Energy =             33.6098788296996673
    One-Electron Energy =                -276.6502372267959800
    Two-Electron Energy =                  90.9688975571837659
    Total Energy =                       -152.0714608399125609

Computation Completed


Properties will be evaluated at   0.000000,   0.000000,   0.000000 [a0]

Properties computed using the SCF density matrix


 Multipole Moments:

 ------------------------------------------------------------------------------------
     Multipole            Electronic (a.u.)      Nuclear  (a.u.)        Total (a.u.)
 ------------------------------------------------------------------------------------

 L = 1.  Multiply by 2.5417464519 to convert [e a0] to [Debye]
 Dipole X            :         -0.0005797           -0.0000000           -0.0005797
 Dipole Y            :         -0.1918202            0.8057008            0.6138806
 Dipole Z            :         -0.1145098            1.4558992            1.3413893
 Magnitude           :                                                    1.4751864

 ------------------------------------------------------------------------------------

*** tstop() called on Lenovo-Y540-Zoha at Tue Sep 27 18:47:40 2022
Module time:
	user time   =        nan seconds =        nan minutes
	system time =        nan seconds =        nan minutes
	total time  =          1 seconds =       0.02 minutes
Total time:
	user time   =        nan seconds =        nan minutes
	system time =        nan seconds =        nan minutes
	total time  =       1279 seconds =      21.32 minutes

    Psi4 stopped on: Tuesday, 27 September 2022 06:47PM
    Psi4 wall time for execution: 0:00:01.09


  //>>>>>>>>>>>>>>>>>>>>>>>>>>>>>>>>>>>//
  //          ManyBody Results         //
  //<<<<<<<<<<<<<<<<<<<<<<<<<<<<<<<<<<<//


   ==> N-Body: Counterpoise Corrected (CP) energies <==

        n-Body     Total Energy            Interaction Energy                          N-body Contribution to Interaction Energy
                   [Eh]                    [Eh]                  [kcal/mol]            [Eh]                  [kcal/mol]
             1  N/A                         0.000000000000        0.000000000000        0.000000000000        0.000000000000
  FULL/RTN   2  N/A                        -0.005878833361       -3.689023628615       -0.005878833361       -3.689023628615

