
Scratch directory: C:\Users\64292\AppData\Local\Temp/

  //>>>>>>>>>>>>>>>>>>>>>>>>>>>>>>>>>>>>>//
  // ManyBody Setup: N-Body Levels [1, 2]//
  //<<<<<<<<<<<<<<<<<<<<<<<<<<<<<<<<<<<<<//

        Number of 1-body computations:     2
        Number of 2-body computations:     1

    -----------------------------------------------------------------------
          Psi4: An Open-Source Ab Initio Electronic Structure Package
                               Psi4 1.6.1 release

                         Git: Rev {HEAD} 5b9f6e3 


    D. G. A. Smith, L. A. Burns, A. C. Simmonett, R. M. Parrish,
    M. C. Schieber, R. Galvelis, P. Kraus, H. Kruse, R. Di Remigio,
    A. Alenaizan, A. M. James, S. Lehtola, J. P. Misiewicz, M. Scheurer,
    R. A. Shaw, J. B. Schriber, Y. Xie, Z. L. Glick, D. A. Sirianni,
    J. S. O'Brien, J. M. Waldrop, A. Kumar, E. G. Hohenstein,
    B. P. Pritchard, B. R. Brooks, H. F. Schaefer III, A. Yu. Sokolov,
    K. Patkowski, A. E. DePrince III, U. Bozkaya, R. A. King,
    F. A. Evangelista, J. M. Turney, T. D. Crawford, C. D. Sherrill,
    J. Chem. Phys. 152(18) 184108 (2020). https://doi.org/10.1063/5.0006002

                            Additional Code Authors
    E. T. Seidl, C. L. Janssen, E. F. Valeev, M. L. Leininger,
    J. F. Gonthier, R. M. Richard, H. R. McAlexander, M. Saitow, X. Wang,
    P. Verma, M. H. Lechner, and A. Jiang

             Previous Authors, Complete List of Code Contributors,
                       and Citations for Specific Modules
    https://github.com/psi4/psi4/blob/master/codemeta.json
    https://github.com/psi4/psi4/graphs/contributors
    http://psicode.org/psi4manual/master/introduction.html#citing-psifour

    -----------------------------------------------------------------------


    Psi4 started on: Tuesday, 27 September 2022 06:25PM

    Process ID: 10544
    Host:       Lenovo-Y540-Zoha
    PSIDATADIR: C:\Users\64292\Anaconda3\envs\qm-tools\lib\share\psi4
    Memory:     476.8 MiB
    Threads:    1
    
  ==> Input QCSchema <==

--------------------------------------------------------------------------
{'driver': 'energy',
 'extras': {'psiapi': True, 'wfn_qcvars_only': True},
 'id': None,
 'keywords': {'function_kwargs': {}},
 'model': {'basis': 'aug-cc-pvdz', 'method': 'scf'},
 'molecule': {'atom_labels': ['1', '2', '3', '5', '6', '7'],
              'atomic_numbers': [8, 1, 1, 8, 1, 1],
              'fix_com': True,
              'fix_orientation': True,
              'fragment_charges': [0.0, 0.0],
              'fragment_multiplicities': [1, 1],
              'fragments': [[0, 1, 2], [3, 4, 5]],
              'geometry': [3.08214385307306e-17, -0.05118338925575476, -2.927077430585559, 3.08214385307306e-17,
                           -0.05118338925575476, -1.0373513051277308, 3.08214385307306e-17, 1.7781852282291912,
                           -3.4008656645034905, 3.08214385307306e-17, -0.05118338925575476, 2.742100945787925,
                           1.157216190244586, -1.2083995795003426, 3.6869640085168385, -1.1572161902445872,
                           1.1060328009888314, 3.6869640085168394],
              'mass_numbers': [16, 1, 1, 16, 1, 1],
              'masses': [15.99491461957, 1.00782503223, 1.00782503223, 15.99491461957, 1.00782503223, 1.00782503223],
              'molecular_charge': 0.0,
              'molecular_multiplicity': 1,
              'name': 'H4O2',
              'provenance': {'creator': 'QCElemental',
                             'routine': 'qcelemental.molparse.from_string',
                             'version': 'v0.25.0'},
              'real': [False, False, False, True, True, True],
              'schema_name': 'qcschema_molecule',
              'schema_version': 2,
              'symbols': ['O', 'H', 'H', 'O', 'H', 'H'],
              'validated': True},
 'protocols': {'stdout': True},
 'provenance': {'creator': 'QCElemental', 'routine': 'qcelemental.models.results', 'version': 'v0.25.0'},
 'schema_name': 'qcschema_input',
 'schema_version': 1}
--------------------------------------------------------------------------

Scratch directory: C:\Users\64292\AppData\Local\Temp/

*** tstart() called on Lenovo-Y540-Zoha
*** at Tue Sep 27 18:42:54 2022

   => Loading Basis Set <=

    Name: AUG-CC-PVDZ
    Role: ORBITAL
    Keyword: BASIS
    atoms 1, 4     entry O          line   254 file C:\Users\64292\Anaconda3\envs\qm-tools\lib\share\psi4\basis\aug-cc-pvdz.gbs 
    atoms 2-3, 5-6 entry H          line    40 file C:\Users\64292\Anaconda3\envs\qm-tools\lib\share\psi4\basis\aug-cc-pvdz.gbs 


         ---------------------------------------------------------
                                   SCF
               by Justin Turney, Rob Parrish, Andy Simmonett
                          and Daniel G. A. Smith
                              RHF Reference
                        1 Threads,    476 MiB Core
         ---------------------------------------------------------

  ==> Geometry <==

    Molecular point group: c1
    Full point group: C1

    Geometry (in Bohr), charge = 0, multiplicity = 1:

       Center              X                  Y                   Z               Mass       
    ------------   -----------------  -----------------  -----------------  -----------------
      Gh(O)           0.000000000000    -0.051183389256    -2.927077430586    15.994914619570
      Gh(H)           0.000000000000    -0.051183389256    -1.037351305128     1.007825032230
      Gh(H)           0.000000000000     1.778185228229    -3.400865664503     1.007825032230
         O            0.000000000000    -0.051183389256     2.742100945788    15.994914619570
         H            1.157216190245    -1.208399579500     3.686964008517     1.007825032230
         H           -1.157216190245     1.106032800989     3.686964008517     1.007825032230

  Running in c1 symmetry.

  Rotational constants: A =      7.04742  B =      0.20152  C =      0.19739 [cm^-1]
  Rotational constants: A = 211276.24963  B =   6041.32825  C =   5917.60077 [MHz]
  Nuclear repulsion =    8.772355975749342

  Charge       = 0
  Multiplicity = 1
  Electrons    = 10
  Nalpha       = 5
  Nbeta        = 5

  ==> Algorithm <==

  SCF Algorithm Type is DF.
  DIIS enabled.
  MOM disabled.
  Fractional occupation disabled.
  Guess Type is SAD.
  Energy threshold   = 1.00e-06
  Density threshold  = 1.00e-06
  Integral threshold = 1.00e-12

  ==> Primary Basis <==

  Basis Set: AUG-CC-PVDZ
    Blend: AUG-CC-PVDZ
    Number of shells: 38
    Number of basis functions: 82
    Number of Cartesian functions: 86
    Spherical Harmonics?: true
    Max angular momentum: 2

   => Loading Basis Set <=

    Name: (AUG-CC-PVDZ AUX)
    Role: JKFIT
    Keyword: DF_BASIS_SCF
    atoms 1, 4     entry O          line   270 file C:\Users\64292\Anaconda3\envs\qm-tools\lib\share\psi4\basis\aug-cc-pvdz-jkfit.gbs 
    atoms 2-3, 5-6 entry H          line    70 file C:\Users\64292\Anaconda3\envs\qm-tools\lib\share\psi4\basis\aug-cc-pvdz-jkfit.gbs 

  ==> Integral Setup <==

  DFHelper Memory: AOs need 0.017 GiB; user supplied 0.349 GiB. Using in-core AOs.

  ==> MemDFJK: Density-Fitted J/K Matrices <==

    J tasked:                   Yes
    K tasked:                   Yes
    wK tasked:                   No
    OpenMP threads:               1
    Memory [MiB]:               357
    Algorithm:                 Core
    Schwarz Cutoff:           1E-12
    Mask sparsity (%):       0.0000
    Fitting Condition:        1E-10

   => Auxiliary Basis Set <=

  Basis Set: (AUG-CC-PVDZ AUX)
    Blend: AUG-CC-PVDZ-JKFIT
    Number of shells: 104
    Number of basis functions: 300
    Number of Cartesian functions: 342
    Spherical Harmonics?: true
    Max angular momentum: 3

  Minimum eigenvalue in the overlap matrix is 2.0028841572E-03.
  Reciprocal condition number of the overlap matrix is 2.7318768300E-04.
    Using symmetric orthogonalization.

  ==> Pre-Iterations <==

  SCF Guess: Superposition of Atomic Densities via on-the-fly atomic UHF (no occupation information).

   -------------------------
    Irrep   Nso     Nmo    
   -------------------------
     A         82      82 
   -------------------------
    Total      82      82
   -------------------------

  ==> Iterations <==

                           Total Energy        Delta E     RMS |[F,P]|

   @DF-RHF iter SAD:   -75.40236274422647   -7.54024e+01   0.00000e+00 
   @DF-RHF iter   1:   -75.94514990591917   -5.42787e-01   5.50956e-03 DIIS/ADIIS
   @DF-RHF iter   2:   -75.99634548992900   -5.11956e-02   3.73182e-03 DIIS/ADIIS
   @DF-RHF iter   3:   -76.02943900083987   -3.30935e-02   2.79112e-04 DIIS/ADIIS
   @DF-RHF iter   4:   -76.02990999165652   -4.70991e-04   6.67697e-05 DIIS
   @DF-RHF iter   5:   -76.02994260860567   -3.26169e-05   1.62967e-05 DIIS
   @DF-RHF iter   6:   -76.02994568467280   -3.07607e-06   3.49985e-06 DIIS
   @DF-RHF iter   7:   -76.02994583994877   -1.55276e-07   6.43811e-07 DIIS
  Energy and wave function converged.


  ==> Post-Iterations <==

    Orbital Energies [Eh]
    ---------------------

    Doubly Occupied:                                                      

       1A    -20.575804     2A     -1.325810     3A     -0.721159  
       4A     -0.548224     5A     -0.500637  

    Virtual:                                                              

       6A      0.032553     7A      0.053736     8A      0.056267  
       9A      0.082672    10A      0.162757    11A      0.173226  
      12A      0.181948    13A      0.198056    14A      0.214357  
      15A      0.223211    16A      0.241049    17A      0.251834  
      18A      0.315849    19A      0.326870    20A      0.369568  
      21A      0.404746    22A      0.442151    23A      0.453127  
      24A      0.466047    25A      0.499543    26A      0.525208  
      27A      0.533883    28A      0.546123    29A      0.571028  
      30A      0.626304    31A      0.650091    32A      0.663810  
      33A      0.715394    34A      0.872511    35A      0.879764  
      36A      0.940187    37A      0.953841    38A      1.131929  
      39A      1.147414    40A      1.171555    41A      1.210014  
      42A      1.224483    43A      1.286600    44A      1.337791  
      45A      1.391158    46A      1.406400    47A      1.435307  
      48A      1.483276    49A      1.563610    50A      1.582970  
      51A      1.790871    52A      2.003501    53A      2.049528  
      54A      2.058542    55A      2.148870    56A      2.330499  
      57A      2.371478    58A      2.413540    59A      2.459747  
      60A      2.484845    61A      2.539877    62A      2.629211  
      63A      2.725479    64A      2.863328    65A      2.939162  
      66A      3.432903    67A      3.700986    68A      3.714624  
      69A      3.847109    70A      3.913460    71A      4.086298  
      72A      4.146329    73A      4.194170    74A      4.913494  
      75A      4.959855    76A      5.000720    77A      5.188088  
      78A      5.491364    79A      5.676155    80A      6.462194  
      81A      6.892394    82A     33.572030  

    Final Occupation by Irrep:
              A 
    DOCC [     5 ]

  @DF-RHF Final Energy:   -76.02994583994877

   => Energetics <=

    Nuclear Repulsion Energy =              8.7723559757493419
    One-Electron Energy =                -122.2612987029516916
    Two-Electron Energy =                  37.4589968872535763
    Total Energy =                        -76.0299458399487804

Computation Completed


Properties will be evaluated at   0.000000,   0.000000,   0.000000 [a0]

Properties computed using the SCF density matrix


 Multipole Moments:

 ------------------------------------------------------------------------------------
     Multipole            Electronic (a.u.)      Nuclear  (a.u.)        Total (a.u.)
 ------------------------------------------------------------------------------------

 L = 1.  Multiply by 2.5417464519 to convert [e a0] to [Debye]
 Dipole X            :         -0.0001363           -0.0000000           -0.0001363
 Dipole Y            :          0.5115714           -0.5118339           -0.0002625
 Dipole Z            :        -28.6255715           29.3107356            0.6851641
 Magnitude           :                                                    0.6851642

 ------------------------------------------------------------------------------------

*** tstop() called on Lenovo-Y540-Zoha at Tue Sep 27 18:42:55 2022
Module time:
	user time   =        nan seconds =        nan minutes
	system time =        nan seconds =        nan minutes
	total time  =          1 seconds =       0.02 minutes
Total time:
	user time   =        nan seconds =        nan minutes
	system time =        nan seconds =        nan minutes
	total time  =        994 seconds =      16.57 minutes

    Psi4 stopped on: Tuesday, 27 September 2022 06:42PM
    Psi4 wall time for execution: 0:00:00.99


    -----------------------------------------------------------------------
          Psi4: An Open-Source Ab Initio Electronic Structure Package
                               Psi4 1.6.1 release

                         Git: Rev {HEAD} 5b9f6e3 


    D. G. A. Smith, L. A. Burns, A. C. Simmonett, R. M. Parrish,
    M. C. Schieber, R. Galvelis, P. Kraus, H. Kruse, R. Di Remigio,
    A. Alenaizan, A. M. James, S. Lehtola, J. P. Misiewicz, M. Scheurer,
    R. A. Shaw, J. B. Schriber, Y. Xie, Z. L. Glick, D. A. Sirianni,
    J. S. O'Brien, J. M. Waldrop, A. Kumar, E. G. Hohenstein,
    B. P. Pritchard, B. R. Brooks, H. F. Schaefer III, A. Yu. Sokolov,
    K. Patkowski, A. E. DePrince III, U. Bozkaya, R. A. King,
    F. A. Evangelista, J. M. Turney, T. D. Crawford, C. D. Sherrill,
    J. Chem. Phys. 152(18) 184108 (2020). https://doi.org/10.1063/5.0006002

                            Additional Code Authors
    E. T. Seidl, C. L. Janssen, E. F. Valeev, M. L. Leininger,
    J. F. Gonthier, R. M. Richard, H. R. McAlexander, M. Saitow, X. Wang,
    P. Verma, M. H. Lechner, and A. Jiang

             Previous Authors, Complete List of Code Contributors,
                       and Citations for Specific Modules
    https://github.com/psi4/psi4/blob/master/codemeta.json
    https://github.com/psi4/psi4/graphs/contributors
    http://psicode.org/psi4manual/master/introduction.html#citing-psifour

    -----------------------------------------------------------------------


    Psi4 started on: Tuesday, 27 September 2022 06:25PM

    Process ID: 10544
    Host:       Lenovo-Y540-Zoha
    PSIDATADIR: C:\Users\64292\Anaconda3\envs\qm-tools\lib\share\psi4
    Memory:     476.8 MiB
    Threads:    1
    
  ==> Input QCSchema <==

--------------------------------------------------------------------------
{'driver': 'energy',
 'extras': {'psiapi': True, 'wfn_qcvars_only': True},
 'id': None,
 'keywords': {'function_kwargs': {}},
 'model': {'basis': 'aug-cc-pvdz', 'method': 'scf'},
 'molecule': {'atom_labels': ['1', '2', '3', '5', '6', '7'],
              'atomic_numbers': [8, 1, 1, 8, 1, 1],
              'fix_com': True,
              'fix_orientation': True,
              'fragment_charges': [0.0, 0.0],
              'fragment_multiplicities': [1, 1],
              'fragments': [[0, 1, 2], [3, 4, 5]],
              'geometry': [3.08214385307306e-17, -0.05118338925575476, -2.927077430585559, 3.08214385307306e-17,
                           -0.05118338925575476, -1.0373513051277308, 3.08214385307306e-17, 1.7781852282291912,
                           -3.4008656645034905, 3.08214385307306e-17, -0.05118338925575476, 2.742100945787925,
                           1.157216190244586, -1.2083995795003426, 3.6869640085168385, -1.1572161902445872,
                           1.1060328009888314, 3.6869640085168394],
              'mass_numbers': [16, 1, 1, 16, 1, 1],
              'masses': [15.99491461957, 1.00782503223, 1.00782503223, 15.99491461957, 1.00782503223, 1.00782503223],
              'molecular_charge': 0.0,
              'molecular_multiplicity': 1,
              'name': 'H4O2',
              'provenance': {'creator': 'QCElemental',
                             'routine': 'qcelemental.molparse.from_string',
                             'version': 'v0.25.0'},
              'real': [True, True, True, False, False, False],
              'schema_name': 'qcschema_molecule',
              'schema_version': 2,
              'symbols': ['O', 'H', 'H', 'O', 'H', 'H'],
              'validated': True},
 'protocols': {'stdout': True},
 'provenance': {'creator': 'QCElemental', 'routine': 'qcelemental.models.results', 'version': 'v0.25.0'},
 'schema_name': 'qcschema_input',
 'schema_version': 1}
--------------------------------------------------------------------------

Scratch directory: C:\Users\64292\AppData\Local\Temp/

*** tstart() called on Lenovo-Y540-Zoha
*** at Tue Sep 27 18:42:55 2022

   => Loading Basis Set <=

    Name: AUG-CC-PVDZ
    Role: ORBITAL
    Keyword: BASIS
    atoms 1, 4     entry O          line   254 file C:\Users\64292\Anaconda3\envs\qm-tools\lib\share\psi4\basis\aug-cc-pvdz.gbs 
    atoms 2-3, 5-6 entry H          line    40 file C:\Users\64292\Anaconda3\envs\qm-tools\lib\share\psi4\basis\aug-cc-pvdz.gbs 


         ---------------------------------------------------------
                                   SCF
               by Justin Turney, Rob Parrish, Andy Simmonett
                          and Daniel G. A. Smith
                              RHF Reference
                        1 Threads,    476 MiB Core
         ---------------------------------------------------------

  ==> Geometry <==

    Molecular point group: c1
    Full point group: C1

    Geometry (in Bohr), charge = 0, multiplicity = 1:

       Center              X                  Y                   Z               Mass       
    ------------   -----------------  -----------------  -----------------  -----------------
         O            0.000000000000    -0.051183389256    -2.927077430586    15.994914619570
         H            0.000000000000    -0.051183389256    -1.037351305128     1.007825032230
         H            0.000000000000     1.778185228229    -3.400865664503     1.007825032230
      Gh(O)           0.000000000000    -0.051183389256     2.742100945788    15.994914619570
      Gh(H)           1.157216190245    -1.208399579500     3.686964008517     1.007825032230
      Gh(H)          -1.157216190245     1.106032800989     3.686964008517     1.007825032230

  Running in c1 symmetry.

  Rotational constants: A =      7.04742  B =      0.20152  C =      0.19739 [cm^-1]
  Rotational constants: A = 211276.24963  B =   6041.32825  C =   5917.60077 [MHz]
  Nuclear repulsion =    8.801420354575150

  Charge       = 0
  Multiplicity = 1
  Electrons    = 10
  Nalpha       = 5
  Nbeta        = 5

  ==> Algorithm <==

  SCF Algorithm Type is DF.
  DIIS enabled.
  MOM disabled.
  Fractional occupation disabled.
  Guess Type is SAD.
  Energy threshold   = 1.00e-06
  Density threshold  = 1.00e-06
  Integral threshold = 1.00e-12

  ==> Primary Basis <==

  Basis Set: AUG-CC-PVDZ
    Blend: AUG-CC-PVDZ
    Number of shells: 38
    Number of basis functions: 82
    Number of Cartesian functions: 86
    Spherical Harmonics?: true
    Max angular momentum: 2

   => Loading Basis Set <=

    Name: (AUG-CC-PVDZ AUX)
    Role: JKFIT
    Keyword: DF_BASIS_SCF
    atoms 1, 4     entry O          line   270 file C:\Users\64292\Anaconda3\envs\qm-tools\lib\share\psi4\basis\aug-cc-pvdz-jkfit.gbs 
    atoms 2-3, 5-6 entry H          line    70 file C:\Users\64292\Anaconda3\envs\qm-tools\lib\share\psi4\basis\aug-cc-pvdz-jkfit.gbs 

  ==> Integral Setup <==

  DFHelper Memory: AOs need 0.017 GiB; user supplied 0.349 GiB. Using in-core AOs.

  ==> MemDFJK: Density-Fitted J/K Matrices <==

    J tasked:                   Yes
    K tasked:                   Yes
    wK tasked:                   No
    OpenMP threads:               1
    Memory [MiB]:               357
    Algorithm:                 Core
    Schwarz Cutoff:           1E-12
    Mask sparsity (%):       0.0000
    Fitting Condition:        1E-10

   => Auxiliary Basis Set <=

  Basis Set: (AUG-CC-PVDZ AUX)
    Blend: AUG-CC-PVDZ-JKFIT
    Number of shells: 104
    Number of basis functions: 300
    Number of Cartesian functions: 342
    Spherical Harmonics?: true
    Max angular momentum: 3

  Minimum eigenvalue in the overlap matrix is 2.0028841572E-03.
  Reciprocal condition number of the overlap matrix is 2.7318768300E-04.
    Using symmetric orthogonalization.

  ==> Pre-Iterations <==

  SCF Guess: Superposition of Atomic Densities via on-the-fly atomic UHF (no occupation information).

   -------------------------
    Irrep   Nso     Nmo    
   -------------------------
     A         82      82 
   -------------------------
    Total      82      82
   -------------------------

  ==> Iterations <==

                           Total Energy        Delta E     RMS |[F,P]|

   @DF-RHF iter SAD:   -75.41487088366767   -7.54149e+01   0.00000e+00 
   @DF-RHF iter   1:   -75.94941993892986   -5.34549e-01   5.50610e-03 DIIS/ADIIS
   @DF-RHF iter   2:   -76.00130091748903   -5.18810e-02   3.77586e-03 DIIS/ADIIS
   @DF-RHF iter   3:   -76.03525829883377   -3.39574e-02   2.81159e-04 DIIS/ADIIS
   @DF-RHF iter   4:   -76.03571180826948   -4.53509e-04   6.60422e-05 DIIS
   @DF-RHF iter   5:   -76.03574197817892   -3.01699e-05   1.56397e-05 DIIS
   @DF-RHF iter   6:   -76.03574455296042   -2.57478e-06   3.09496e-06 DIIS
   @DF-RHF iter   7:   -76.03574465655359   -1.03593e-07   5.05514e-07 DIIS
  Energy and wave function converged.


  ==> Post-Iterations <==

    Orbital Energies [Eh]
    ---------------------

    Doubly Occupied:                                                      

       1A    -20.584241     2A     -1.335637     3A     -0.696493  
       4A     -0.577363     5A     -0.506066  

    Virtual:                                                              

       6A      0.024775     7A      0.049827     8A      0.058648  
       9A      0.080948    10A      0.135032    11A      0.147208  
      12A      0.181868    13A      0.194269    14A      0.220338  
      15A      0.227643    16A      0.227873    17A      0.270242  
      18A      0.327908    19A      0.360873    20A      0.362807  
      21A      0.398671    22A      0.401937    23A      0.415672  
      24A      0.427056    25A      0.472249    26A      0.483631  
      27A      0.493262    28A      0.508578    29A      0.552270  
      30A      0.584372    31A      0.623456    32A      0.649589  
      33A      0.753228    34A      0.848414    35A      0.914257  
      36A      0.965394    37A      1.043286    38A      1.109631  
      39A      1.150893    40A      1.174542    41A      1.181234  
      42A      1.203991    43A      1.279164    44A      1.296543  
      45A      1.303010    46A      1.331928    47A      1.380218  
      48A      1.437129    49A      1.502966    50A      1.569956  
      51A      1.737329    52A      1.987924    53A      1.997129  
      54A      2.053258    55A      2.089077    56A      2.329479  
      57A      2.365116    58A      2.381808    59A      2.391734  
      60A      2.444400    61A      2.490783    62A      2.591671  
      63A      2.722109    64A      2.934357    65A      2.988898  
      66A      3.420603    67A      3.675907    68A      3.706197  
      69A      3.729982    70A      3.951682    71A      3.972451  
      72A      4.058060    73A      4.290025    74A      4.904057  
      75A      4.936967    76A      5.061747    77A      5.325195  
      78A      5.359008    79A      5.591615    80A      6.368002  
      81A      6.808146    82A     33.527814  

    Final Occupation by Irrep:
              A 
    DOCC [     5 ]

  @DF-RHF Final Energy:   -76.03574465655359

   => Energetics <=

    Nuclear Repulsion Energy =              8.8014203545751499
    One-Electron Energy =                -122.2747088191998728
    Two-Electron Energy =                  37.4375438080711263
    Total Energy =                        -76.0357446565535895

Computation Completed


Properties will be evaluated at   0.000000,   0.000000,   0.000000 [a0]

Properties computed using the SCF density matrix


 Multipole Moments:

 ------------------------------------------------------------------------------------
     Multipole            Electronic (a.u.)      Nuclear  (a.u.)        Total (a.u.)
 ------------------------------------------------------------------------------------

 L = 1.  Multiply by 2.5417464519 to convert [e a0] to [Debye]
 Dipole X            :         -0.0001248            0.0000000           -0.0001248
 Dipole Y            :         -0.6854806            1.3175347            0.6320541
 Dipole Z            :         28.3438672          -27.8548364            0.4890308
 Magnitude           :                                                    0.7991518

 ------------------------------------------------------------------------------------

*** tstop() called on Lenovo-Y540-Zoha at Tue Sep 27 18:42:56 2022
Module time:
	user time   =        nan seconds =        nan minutes
	system time =        nan seconds =        nan minutes
	total time  =          1 seconds =       0.02 minutes
Total time:
	user time   =        nan seconds =        nan minutes
	system time =        nan seconds =        nan minutes
	total time  =        995 seconds =      16.58 minutes

    Psi4 stopped on: Tuesday, 27 September 2022 06:42PM
    Psi4 wall time for execution: 0:00:01.01


    -----------------------------------------------------------------------
          Psi4: An Open-Source Ab Initio Electronic Structure Package
                               Psi4 1.6.1 release

                         Git: Rev {HEAD} 5b9f6e3 


    D. G. A. Smith, L. A. Burns, A. C. Simmonett, R. M. Parrish,
    M. C. Schieber, R. Galvelis, P. Kraus, H. Kruse, R. Di Remigio,
    A. Alenaizan, A. M. James, S. Lehtola, J. P. Misiewicz, M. Scheurer,
    R. A. Shaw, J. B. Schriber, Y. Xie, Z. L. Glick, D. A. Sirianni,
    J. S. O'Brien, J. M. Waldrop, A. Kumar, E. G. Hohenstein,
    B. P. Pritchard, B. R. Brooks, H. F. Schaefer III, A. Yu. Sokolov,
    K. Patkowski, A. E. DePrince III, U. Bozkaya, R. A. King,
    F. A. Evangelista, J. M. Turney, T. D. Crawford, C. D. Sherrill,
    J. Chem. Phys. 152(18) 184108 (2020). https://doi.org/10.1063/5.0006002

                            Additional Code Authors
    E. T. Seidl, C. L. Janssen, E. F. Valeev, M. L. Leininger,
    J. F. Gonthier, R. M. Richard, H. R. McAlexander, M. Saitow, X. Wang,
    P. Verma, M. H. Lechner, and A. Jiang

             Previous Authors, Complete List of Code Contributors,
                       and Citations for Specific Modules
    https://github.com/psi4/psi4/blob/master/codemeta.json
    https://github.com/psi4/psi4/graphs/contributors
    http://psicode.org/psi4manual/master/introduction.html#citing-psifour

    -----------------------------------------------------------------------


    Psi4 started on: Tuesday, 27 September 2022 06:25PM

    Process ID: 10544
    Host:       Lenovo-Y540-Zoha
    PSIDATADIR: C:\Users\64292\Anaconda3\envs\qm-tools\lib\share\psi4
    Memory:     476.8 MiB
    Threads:    1
    
  ==> Input QCSchema <==

--------------------------------------------------------------------------
{'driver': 'energy',
 'extras': {'psiapi': True, 'wfn_qcvars_only': True},
 'id': None,
 'keywords': {'function_kwargs': {}},
 'model': {'basis': 'aug-cc-pvdz', 'method': 'scf'},
 'molecule': {'atom_labels': ['1', '2', '3', '5', '6', '7'],
              'atomic_numbers': [8, 1, 1, 8, 1, 1],
              'fix_com': True,
              'fix_orientation': True,
              'fragment_charges': [0.0, 0.0],
              'fragment_multiplicities': [1, 1],
              'fragments': [[0, 1, 2], [3, 4, 5]],
              'geometry': [3.08214385307306e-17, -0.05118338925575476, -2.927077430585559, 3.08214385307306e-17,
                           -0.05118338925575476, -1.0373513051277308, 3.08214385307306e-17, 1.7781852282291912,
                           -3.4008656645034905, 3.08214385307306e-17, -0.05118338925575476, 2.742100945787925,
                           1.157216190244586, -1.2083995795003426, 3.6869640085168385, -1.1572161902445872,
                           1.1060328009888314, 3.6869640085168394],
              'mass_numbers': [16, 1, 1, 16, 1, 1],
              'masses': [15.99491461957, 1.00782503223, 1.00782503223, 15.99491461957, 1.00782503223, 1.00782503223],
              'molecular_charge': 0.0,
              'molecular_multiplicity': 1,
              'name': 'H4O2',
              'provenance': {'creator': 'QCElemental',
                             'routine': 'qcelemental.molparse.from_string',
                             'version': 'v0.25.0'},
              'real': [True, True, True, True, True, True],
              'schema_name': 'qcschema_molecule',
              'schema_version': 2,
              'symbols': ['O', 'H', 'H', 'O', 'H', 'H'],
              'validated': True},
 'protocols': {'stdout': True},
 'provenance': {'creator': 'QCElemental', 'routine': 'qcelemental.models.results', 'version': 'v0.25.0'},
 'schema_name': 'qcschema_input',
 'schema_version': 1}
--------------------------------------------------------------------------

Scratch directory: C:\Users\64292\AppData\Local\Temp/

*** tstart() called on Lenovo-Y540-Zoha
*** at Tue Sep 27 18:42:56 2022

   => Loading Basis Set <=

    Name: AUG-CC-PVDZ
    Role: ORBITAL
    Keyword: BASIS
    atoms 1, 4     entry O          line   254 file C:\Users\64292\Anaconda3\envs\qm-tools\lib\share\psi4\basis\aug-cc-pvdz.gbs 
    atoms 2-3, 5-6 entry H          line    40 file C:\Users\64292\Anaconda3\envs\qm-tools\lib\share\psi4\basis\aug-cc-pvdz.gbs 


         ---------------------------------------------------------
                                   SCF
               by Justin Turney, Rob Parrish, Andy Simmonett
                          and Daniel G. A. Smith
                              RHF Reference
                        1 Threads,    476 MiB Core
         ---------------------------------------------------------

  ==> Geometry <==

    Molecular point group: c1
    Full point group: C1

    Geometry (in Bohr), charge = 0, multiplicity = 1:

       Center              X                  Y                   Z               Mass       
    ------------   -----------------  -----------------  -----------------  -----------------
         O            0.000000000000    -0.051183389256    -2.927077430586    15.994914619570
         H            0.000000000000    -0.051183389256    -1.037351305128     1.007825032230
         H            0.000000000000     1.778185228229    -3.400865664503     1.007825032230
         O            0.000000000000    -0.051183389256     2.742100945788    15.994914619570
         H            1.157216190245    -1.208399579500     3.686964008517     1.007825032230
         H           -1.157216190245     1.106032800989     3.686964008517     1.007825032230

  Running in c1 symmetry.

  Rotational constants: A =      7.04742  B =      0.20152  C =      0.19739 [cm^-1]
  Rotational constants: A = 211276.24963  B =   6041.32825  C =   5917.60077 [MHz]
  Nuclear repulsion =   35.243236337393526

  Charge       = 0
  Multiplicity = 1
  Electrons    = 20
  Nalpha       = 10
  Nbeta        = 10

  ==> Algorithm <==

  SCF Algorithm Type is DF.
  DIIS enabled.
  MOM disabled.
  Fractional occupation disabled.
  Guess Type is SAD.
  Energy threshold   = 1.00e-06
  Density threshold  = 1.00e-06
  Integral threshold = 1.00e-12

  ==> Primary Basis <==

  Basis Set: AUG-CC-PVDZ
    Blend: AUG-CC-PVDZ
    Number of shells: 38
    Number of basis functions: 82
    Number of Cartesian functions: 86
    Spherical Harmonics?: true
    Max angular momentum: 2

   => Loading Basis Set <=

    Name: (AUG-CC-PVDZ AUX)
    Role: JKFIT
    Keyword: DF_BASIS_SCF
    atoms 1, 4     entry O          line   270 file C:\Users\64292\Anaconda3\envs\qm-tools\lib\share\psi4\basis\aug-cc-pvdz-jkfit.gbs 
    atoms 2-3, 5-6 entry H          line    70 file C:\Users\64292\Anaconda3\envs\qm-tools\lib\share\psi4\basis\aug-cc-pvdz-jkfit.gbs 

  ==> Integral Setup <==

  DFHelper Memory: AOs need 0.017 GiB; user supplied 0.349 GiB. Using in-core AOs.

  ==> MemDFJK: Density-Fitted J/K Matrices <==

    J tasked:                   Yes
    K tasked:                   Yes
    wK tasked:                   No
    OpenMP threads:               1
    Memory [MiB]:               357
    Algorithm:                 Core
    Schwarz Cutoff:           1E-12
    Mask sparsity (%):       0.0000
    Fitting Condition:        1E-10

   => Auxiliary Basis Set <=

  Basis Set: (AUG-CC-PVDZ AUX)
    Blend: AUG-CC-PVDZ-JKFIT
    Number of shells: 104
    Number of basis functions: 300
    Number of Cartesian functions: 342
    Spherical Harmonics?: true
    Max angular momentum: 3

  Minimum eigenvalue in the overlap matrix is 2.0028841572E-03.
  Reciprocal condition number of the overlap matrix is 2.7318768300E-04.
    Using symmetric orthogonalization.

  ==> Pre-Iterations <==

  SCF Guess: Superposition of Atomic Densities via on-the-fly atomic UHF (no occupation information).

   -------------------------
    Irrep   Nso     Nmo    
   -------------------------
     A         82      82 
   -------------------------
    Total      82      82
   -------------------------

  ==> Iterations <==

                           Total Energy        Delta E     RMS |[F,P]|

   @DF-RHF iter SAD:  -150.88711462570717   -1.50887e+02   0.00000e+00 
   @DF-RHF iter   1:  -151.91301424627463   -1.02590e+00   7.51592e-03 DIIS/ADIIS
   @DF-RHF iter   2:  -152.01308682261927   -1.00073e-01   4.93857e-03 DIIS/ADIIS
   @DF-RHF iter   3:  -152.07080562583582   -5.77188e-02   4.12748e-04 DIIS/ADIIS
   @DF-RHF iter   4:  -152.07177654948023   -9.70924e-04   9.11280e-05 DIIS
   @DF-RHF iter   5:  -152.07183299048236   -5.64410e-05   3.01901e-05 DIIS
   @DF-RHF iter   6:  -152.07183871606441   -5.72558e-06   1.31417e-05 DIIS
   @DF-RHF iter   7:  -152.07183964769007   -9.31626e-07   2.52418e-06 DIIS
   @DF-RHF iter   8:  -152.07183971512217   -6.74321e-08   4.64038e-07 DIIS
  Energy and wave function converged.


  ==> Post-Iterations <==

    Orbital Energies [Eh]
    ---------------------

    Doubly Occupied:                                                      

       1A    -20.601053     2A    -20.549745     3A     -1.353622  
       4A     -1.303901     5A     -0.747025     6A     -0.672015  
       7A     -0.583949     8A     -0.539206     9A     -0.527689  
      10A     -0.474466  

    Virtual:                                                              

      11A      0.025424    12A      0.049748    13A      0.058238  
      14A      0.089836    15A      0.174414    16A      0.180638  
      17A      0.199362    18A      0.213134    19A      0.230751  
      20A      0.235877    21A      0.247672    22A      0.276811  
      23A      0.303381    24A      0.311274    25A      0.348063  
      26A      0.364864    27A      0.409961    28A      0.426594  
      29A      0.448760    30A      0.482517    31A      0.518565  
      32A      0.536130    33A      0.538453    34A      0.591973  
      35A      0.629723    36A      0.649772    37A      0.669931  
      38A      0.781971    39A      0.850921    40A      0.860870  
      41A      0.935844    42A      0.996332    43A      1.099154  
      44A      1.122704    45A      1.140415    46A      1.185784  
      47A      1.189758    48A      1.226319    49A      1.343519  
      50A      1.432578    51A      1.463001    52A      1.508055  
      53A      1.534183    54A      1.608921    55A      1.628930  
      56A      1.952683    57A      1.980852    58A      2.012753  
      59A      2.028979    60A      2.037563    61A      2.049360  
      62A      2.142363    63A      2.363196    64A      2.392291  
      65A      2.451925    66A      2.492018    67A      2.515834  
      68A      2.732209    69A      2.769825    70A      2.802695  
      71A      2.979635    72A      3.026465    73A      3.673655  
      74A      3.675813    75A      3.707226    76A      3.741100  
      77A      3.768592    78A      3.802461    79A      4.084032  
      80A      4.121582    81A      4.172354    82A      4.358668  

    Final Occupation by Irrep:
              A 
    DOCC [    10 ]

  @DF-RHF Final Energy:  -152.07183971512217

   => Energetics <=

    Nuclear Repulsion Energy =             35.2432363373935260
    One-Electron Energy =                -279.9247942825146538
    Two-Electron Energy =                  92.6097182299989896
    Total Energy =                       -152.0718397151221666

Computation Completed


Properties will be evaluated at   0.000000,   0.000000,   0.000000 [a0]

Properties computed using the SCF density matrix


 Multipole Moments:

 ------------------------------------------------------------------------------------
     Multipole            Electronic (a.u.)      Nuclear  (a.u.)        Total (a.u.)
 ------------------------------------------------------------------------------------

 L = 1.  Multiply by 2.5417464519 to convert [e a0] to [Debye]
 Dipole X            :          0.0014609           -0.0000000            0.0014609
 Dipole Y            :         -0.2002934            0.8057008            0.6054074
 Dipole Z            :         -0.0426076            1.4558992            1.4132915
 Magnitude           :                                                    1.5375023

 ------------------------------------------------------------------------------------

*** tstop() called on Lenovo-Y540-Zoha at Tue Sep 27 18:42:57 2022
Module time:
	user time   =        nan seconds =        nan minutes
	system time =        nan seconds =        nan minutes
	total time  =          1 seconds =       0.02 minutes
Total time:
	user time   =        nan seconds =        nan minutes
	system time =        nan seconds =        nan minutes
	total time  =        996 seconds =      16.60 minutes

    Psi4 stopped on: Tuesday, 27 September 2022 06:42PM
    Psi4 wall time for execution: 0:00:01.08


  //>>>>>>>>>>>>>>>>>>>>>>>>>>>>>>>>>>>//
  //          ManyBody Results         //
  //<<<<<<<<<<<<<<<<<<<<<<<<<<<<<<<<<<<//


   ==> N-Body: Counterpoise Corrected (CP) energies <==

        n-Body     Total Energy            Interaction Energy                          N-body Contribution to Interaction Energy
                   [Eh]                    [Eh]                  [kcal/mol]            [Eh]                  [kcal/mol]
             1  N/A                         0.000000000000        0.000000000000        0.000000000000        0.000000000000
  FULL/RTN   2  N/A                        -0.006149218620       -3.858692940261       -0.006149218620       -3.858692940261

