
Scratch directory: C:\Users\64292\AppData\Local\Temp/

  //>>>>>>>>>>>>>>>>>>>>>>>>>>>>>>>>>>>>>//
  // ManyBody Setup: N-Body Levels [1, 2]//
  //<<<<<<<<<<<<<<<<<<<<<<<<<<<<<<<<<<<<<//

        Number of 1-body computations:     2
        Number of 2-body computations:     1

    -----------------------------------------------------------------------
          Psi4: An Open-Source Ab Initio Electronic Structure Package
                               Psi4 1.6.1 release

                         Git: Rev {HEAD} 5b9f6e3 


    D. G. A. Smith, L. A. Burns, A. C. Simmonett, R. M. Parrish,
    M. C. Schieber, R. Galvelis, P. Kraus, H. Kruse, R. Di Remigio,
    A. Alenaizan, A. M. James, S. Lehtola, J. P. Misiewicz, M. Scheurer,
    R. A. Shaw, J. B. Schriber, Y. Xie, Z. L. Glick, D. A. Sirianni,
    J. S. O'Brien, J. M. Waldrop, A. Kumar, E. G. Hohenstein,
    B. P. Pritchard, B. R. Brooks, H. F. Schaefer III, A. Yu. Sokolov,
    K. Patkowski, A. E. DePrince III, U. Bozkaya, R. A. King,
    F. A. Evangelista, J. M. Turney, T. D. Crawford, C. D. Sherrill,
    J. Chem. Phys. 152(18) 184108 (2020). https://doi.org/10.1063/5.0006002

                            Additional Code Authors
    E. T. Seidl, C. L. Janssen, E. F. Valeev, M. L. Leininger,
    J. F. Gonthier, R. M. Richard, H. R. McAlexander, M. Saitow, X. Wang,
    P. Verma, M. H. Lechner, and A. Jiang

             Previous Authors, Complete List of Code Contributors,
                       and Citations for Specific Modules
    https://github.com/psi4/psi4/blob/master/codemeta.json
    https://github.com/psi4/psi4/graphs/contributors
    http://psicode.org/psi4manual/master/introduction.html#citing-psifour

    -----------------------------------------------------------------------


    Psi4 started on: Tuesday, 27 September 2022 06:25PM

    Process ID: 10544
    Host:       Lenovo-Y540-Zoha
    PSIDATADIR: C:\Users\64292\Anaconda3\envs\qm-tools\lib\share\psi4
    Memory:     476.8 MiB
    Threads:    1
    
  ==> Input QCSchema <==

--------------------------------------------------------------------------
{'driver': 'energy',
 'extras': {'psiapi': True, 'wfn_qcvars_only': True},
 'id': None,
 'keywords': {'function_kwargs': {}},
 'model': {'basis': 'aug-cc-pvdz', 'method': 'scf'},
 'molecule': {'atom_labels': ['1', '2', '3', '5', '6', '7'],
              'atomic_numbers': [8, 1, 1, 8, 1, 1],
              'fix_com': True,
              'fix_orientation': True,
              'fragment_charges': [0.0, 0.0],
              'fragment_multiplicities': [1, 1],
              'fragments': [[0, 1, 2], [3, 4, 5]],
              'geometry': [0.05118338925575477, 3.021563736858451, 0.0, 0.05118338925575477, 1.131837611400623, 0.0,
                           -1.7781852282291912, 3.4953519707763827, 0.0, 0.05118338925575477, -2.8365872520608164, 0.0,
                           -1.585367441585863, -3.7814503147897307, 0.0, 1.687734220097374, -3.7814503147897303, 0.0],
              'mass_numbers': [16, 1, 1, 16, 1, 1],
              'masses': [15.99491461957, 1.00782503223, 1.00782503223, 15.99491461957, 1.00782503223, 1.00782503223],
              'molecular_charge': 0.0,
              'molecular_multiplicity': 1,
              'name': 'H4O2',
              'provenance': {'creator': 'QCElemental',
                             'routine': 'qcelemental.molparse.from_string',
                             'version': 'v0.25.0'},
              'real': [False, False, False, True, True, True],
              'schema_name': 'qcschema_molecule',
              'schema_version': 2,
              'symbols': ['O', 'H', 'H', 'O', 'H', 'H'],
              'validated': True},
 'protocols': {'stdout': True},
 'provenance': {'creator': 'QCElemental', 'routine': 'qcelemental.models.results', 'version': 'v0.25.0'},
 'schema_name': 'qcschema_input',
 'schema_version': 1}
--------------------------------------------------------------------------

Scratch directory: C:\Users\64292\AppData\Local\Temp/

*** tstart() called on Lenovo-Y540-Zoha
*** at Tue Sep 27 18:43:29 2022

   => Loading Basis Set <=

    Name: AUG-CC-PVDZ
    Role: ORBITAL
    Keyword: BASIS
    atoms 1, 4     entry O          line   254 file C:\Users\64292\Anaconda3\envs\qm-tools\lib\share\psi4\basis\aug-cc-pvdz.gbs 
    atoms 2-3, 5-6 entry H          line    40 file C:\Users\64292\Anaconda3\envs\qm-tools\lib\share\psi4\basis\aug-cc-pvdz.gbs 


         ---------------------------------------------------------
                                   SCF
               by Justin Turney, Rob Parrish, Andy Simmonett
                          and Daniel G. A. Smith
                              RHF Reference
                        1 Threads,    476 MiB Core
         ---------------------------------------------------------

  ==> Geometry <==

    Molecular point group: cs
    Full point group: Cs

    Geometry (in Bohr), charge = 0, multiplicity = 1:

       Center              X                  Y                   Z               Mass       
    ------------   -----------------  -----------------  -----------------  -----------------
      Gh(O)           0.051183389256     3.021563736858     0.000000000000    15.994914619570
      Gh(H)           0.051183389256     1.131837611401     0.000000000000     1.007825032230
      Gh(H)          -1.778185228229     3.495351970776     0.000000000000     1.007825032230
         O            0.051183389256    -2.836587252061     0.000000000000    15.994914619570
         H           -1.585367441586    -3.781450314790     0.000000000000     1.007825032230
         H            1.687734220097    -3.781450314790     0.000000000000     1.007825032230

  Running in cs symmetry.

  Rotational constants: A =      7.04720  B =      0.18973  C =      0.18476 [cm^-1]
  Rotational constants: A = 211269.71288  B =   5687.96664  C =   5538.84556 [MHz]
  Nuclear repulsion =    8.772355975749338

  Charge       = 0
  Multiplicity = 1
  Electrons    = 10
  Nalpha       = 5
  Nbeta        = 5

  ==> Algorithm <==

  SCF Algorithm Type is DF.
  DIIS enabled.
  MOM disabled.
  Fractional occupation disabled.
  Guess Type is SAD.
  Energy threshold   = 1.00e-06
  Density threshold  = 1.00e-06
  Integral threshold = 1.00e-12

  ==> Primary Basis <==

  Basis Set: AUG-CC-PVDZ
    Blend: AUG-CC-PVDZ
    Number of shells: 38
    Number of basis functions: 82
    Number of Cartesian functions: 86
    Spherical Harmonics?: true
    Max angular momentum: 2

   => Loading Basis Set <=

    Name: (AUG-CC-PVDZ AUX)
    Role: JKFIT
    Keyword: DF_BASIS_SCF
    atoms 1, 4     entry O          line   270 file C:\Users\64292\Anaconda3\envs\qm-tools\lib\share\psi4\basis\aug-cc-pvdz-jkfit.gbs 
    atoms 2-3, 5-6 entry H          line    70 file C:\Users\64292\Anaconda3\envs\qm-tools\lib\share\psi4\basis\aug-cc-pvdz-jkfit.gbs 

  ==> Integral Setup <==

  DFHelper Memory: AOs need 0.017 GiB; user supplied 0.349 GiB. Using in-core AOs.

  ==> MemDFJK: Density-Fitted J/K Matrices <==

    J tasked:                   Yes
    K tasked:                   Yes
    wK tasked:                   No
    OpenMP threads:               1
    Memory [MiB]:               357
    Algorithm:                 Core
    Schwarz Cutoff:           1E-12
    Mask sparsity (%):       0.0000
    Fitting Condition:        1E-10

   => Auxiliary Basis Set <=

  Basis Set: (AUG-CC-PVDZ AUX)
    Blend: AUG-CC-PVDZ-JKFIT
    Number of shells: 104
    Number of basis functions: 300
    Number of Cartesian functions: 342
    Spherical Harmonics?: true
    Max angular momentum: 3

  Minimum eigenvalue in the overlap matrix is 1.9283845129E-03.
  Reciprocal condition number of the overlap matrix is 2.6778152667E-04.
    Using symmetric orthogonalization.

  ==> Pre-Iterations <==

  SCF Guess: Superposition of Atomic Densities via on-the-fly atomic UHF (no occupation information).

   -------------------------
    Irrep   Nso     Nmo    
   -------------------------
     A'        60      60 
     A"        22      22 
   -------------------------
    Total      82      82
   -------------------------

  ==> Iterations <==

                           Total Energy        Delta E     RMS |[F,P]|

   @DF-RHF iter SAD:   -75.40236276215556   -7.54024e+01   0.00000e+00 
   @DF-RHF iter   1:   -75.94511980486675   -5.42757e-01   7.06857e-03 DIIS/ADIIS
   @DF-RHF iter   2:   -75.99630826842444   -5.11885e-02   4.78709e-03 DIIS/ADIIS
   @DF-RHF iter   3:   -76.02939365214179   -3.30854e-02   3.65435e-04 DIIS/ADIIS
   @DF-RHF iter   4:   -76.02987253850799   -4.78886e-04   8.55583e-05 DIIS
   @DF-RHF iter   5:   -76.02990512196951   -3.25835e-05   2.09231e-05 DIIS
   @DF-RHF iter   6:   -76.02990820183281   -3.07986e-06   4.48588e-06 DIIS
   @DF-RHF iter   7:   -76.02990835674093   -1.54908e-07   8.23908e-07 DIIS
  Energy and wave function converged.


  ==> Post-Iterations <==

    Orbital Energies [Eh]
    ---------------------

    Doubly Occupied:                                                      

       1Ap   -20.575775     2Ap    -1.325821     3Ap    -0.721180  
       4Ap    -0.548238     1App   -0.500664  

    Virtual:                                                              

       5Ap     0.032614     6Ap     0.052818     7Ap     0.056255  
       8Ap     0.085620     2App    0.157318     9Ap     0.173075  
      10Ap     0.181884    11Ap     0.197945    12Ap     0.218459  
       3App    0.219707    13Ap     0.241298    14Ap     0.249925  
      15Ap     0.311042    16Ap     0.328996     4App    0.372886  
      17Ap     0.405635     5App    0.447838     6App    0.456426  
      18Ap     0.461205    19Ap     0.482828    20Ap     0.518865  
       7App    0.534871    21Ap     0.540518    22Ap     0.570434  
      23Ap     0.628842    24Ap     0.642757    25Ap     0.665739  
      26Ap     0.722005    27Ap     0.876780    28Ap     0.896300  
       8App    0.925540    29Ap     0.943918     9App    1.115484  
      30Ap     1.146249    10App    1.146354    31Ap     1.219438  
      32Ap     1.233631    33Ap     1.290427    11App    1.337888  
      34Ap     1.375085    12App    1.403876    35Ap     1.429596  
      36Ap     1.467158    13App    1.545409    37Ap     1.582059  
      38Ap     1.814715    39Ap     2.008304    14App    2.047153  
      15App    2.054130    40Ap     2.121087    41Ap     2.307859  
      16App    2.373954    42Ap     2.424747    43Ap     2.445571  
      17App    2.468242    44Ap     2.533219    45Ap     2.605601  
      46Ap     2.684146    47Ap     2.861445    48Ap     2.934232  
      49Ap     3.429979    18App    3.693444    19App    3.700889  
      50Ap     3.826672    51Ap     3.916595    52Ap     4.081474  
      53Ap     4.144795    54Ap     4.192044    20App    4.911406  
      55Ap     4.958032    21App    4.993880    56Ap     5.192724  
      57Ap     5.492381    22App    5.646668    58Ap     6.439740  
      59Ap     6.866301    60Ap    33.569689  

    Final Occupation by Irrep:
             Ap   App 
    DOCC [     4,    1 ]

  @DF-RHF Final Energy:   -76.02990835674093

   => Energetics <=

    Nuclear Repulsion Energy =              8.7723559757493383
    One-Electron Energy =                -122.2611364470476900
    Two-Electron Energy =                  37.4588721145574226
    Total Energy =                        -76.0299083567409326

Computation Completed


Properties will be evaluated at   0.000000,   0.000000,   0.000000 [a0]

Properties computed using the SCF density matrix


 Multipole Moments:

 ------------------------------------------------------------------------------------
     Multipole            Electronic (a.u.)      Nuclear  (a.u.)        Total (a.u.)
 ------------------------------------------------------------------------------------

 L = 1.  Multiply by 2.5417464519 to convert [e a0] to [Debye]
 Dipole X            :         -0.5116655            0.5118339            0.0001684
 Dipole Y            :         29.5697959          -30.2555986           -0.6858027
 Dipole Z            :          0.0000000            0.0000000            0.0000000
 Magnitude           :                                                    0.6858027

 ------------------------------------------------------------------------------------

*** tstop() called on Lenovo-Y540-Zoha at Tue Sep 27 18:43:30 2022
Module time:
	user time   =        nan seconds =        nan minutes
	system time =        nan seconds =        nan minutes
	total time  =          1 seconds =       0.02 minutes
Total time:
	user time   =        nan seconds =        nan minutes
	system time =        nan seconds =        nan minutes
	total time  =       1029 seconds =      17.15 minutes

    Psi4 stopped on: Tuesday, 27 September 2022 06:43PM
    Psi4 wall time for execution: 0:00:01.03


    -----------------------------------------------------------------------
          Psi4: An Open-Source Ab Initio Electronic Structure Package
                               Psi4 1.6.1 release

                         Git: Rev {HEAD} 5b9f6e3 


    D. G. A. Smith, L. A. Burns, A. C. Simmonett, R. M. Parrish,
    M. C. Schieber, R. Galvelis, P. Kraus, H. Kruse, R. Di Remigio,
    A. Alenaizan, A. M. James, S. Lehtola, J. P. Misiewicz, M. Scheurer,
    R. A. Shaw, J. B. Schriber, Y. Xie, Z. L. Glick, D. A. Sirianni,
    J. S. O'Brien, J. M. Waldrop, A. Kumar, E. G. Hohenstein,
    B. P. Pritchard, B. R. Brooks, H. F. Schaefer III, A. Yu. Sokolov,
    K. Patkowski, A. E. DePrince III, U. Bozkaya, R. A. King,
    F. A. Evangelista, J. M. Turney, T. D. Crawford, C. D. Sherrill,
    J. Chem. Phys. 152(18) 184108 (2020). https://doi.org/10.1063/5.0006002

                            Additional Code Authors
    E. T. Seidl, C. L. Janssen, E. F. Valeev, M. L. Leininger,
    J. F. Gonthier, R. M. Richard, H. R. McAlexander, M. Saitow, X. Wang,
    P. Verma, M. H. Lechner, and A. Jiang

             Previous Authors, Complete List of Code Contributors,
                       and Citations for Specific Modules
    https://github.com/psi4/psi4/blob/master/codemeta.json
    https://github.com/psi4/psi4/graphs/contributors
    http://psicode.org/psi4manual/master/introduction.html#citing-psifour

    -----------------------------------------------------------------------


    Psi4 started on: Tuesday, 27 September 2022 06:25PM

    Process ID: 10544
    Host:       Lenovo-Y540-Zoha
    PSIDATADIR: C:\Users\64292\Anaconda3\envs\qm-tools\lib\share\psi4
    Memory:     476.8 MiB
    Threads:    1
    
  ==> Input QCSchema <==

--------------------------------------------------------------------------
{'driver': 'energy',
 'extras': {'psiapi': True, 'wfn_qcvars_only': True},
 'id': None,
 'keywords': {'function_kwargs': {}},
 'model': {'basis': 'aug-cc-pvdz', 'method': 'scf'},
 'molecule': {'atom_labels': ['1', '2', '3', '5', '6', '7'],
              'atomic_numbers': [8, 1, 1, 8, 1, 1],
              'fix_com': True,
              'fix_orientation': True,
              'fragment_charges': [0.0, 0.0],
              'fragment_multiplicities': [1, 1],
              'fragments': [[0, 1, 2], [3, 4, 5]],
              'geometry': [0.05118338925575477, 3.021563736858451, 0.0, 0.05118338925575477, 1.131837611400623, 0.0,
                           -1.7781852282291912, 3.4953519707763827, 0.0, 0.05118338925575477, -2.8365872520608164, 0.0,
                           -1.585367441585863, -3.7814503147897307, 0.0, 1.687734220097374, -3.7814503147897303, 0.0],
              'mass_numbers': [16, 1, 1, 16, 1, 1],
              'masses': [15.99491461957, 1.00782503223, 1.00782503223, 15.99491461957, 1.00782503223, 1.00782503223],
              'molecular_charge': 0.0,
              'molecular_multiplicity': 1,
              'name': 'H4O2',
              'provenance': {'creator': 'QCElemental',
                             'routine': 'qcelemental.molparse.from_string',
                             'version': 'v0.25.0'},
              'real': [True, True, True, False, False, False],
              'schema_name': 'qcschema_molecule',
              'schema_version': 2,
              'symbols': ['O', 'H', 'H', 'O', 'H', 'H'],
              'validated': True},
 'protocols': {'stdout': True},
 'provenance': {'creator': 'QCElemental', 'routine': 'qcelemental.models.results', 'version': 'v0.25.0'},
 'schema_name': 'qcschema_input',
 'schema_version': 1}
--------------------------------------------------------------------------

Scratch directory: C:\Users\64292\AppData\Local\Temp/

*** tstart() called on Lenovo-Y540-Zoha
*** at Tue Sep 27 18:43:30 2022

   => Loading Basis Set <=

    Name: AUG-CC-PVDZ
    Role: ORBITAL
    Keyword: BASIS
    atoms 1, 4     entry O          line   254 file C:\Users\64292\Anaconda3\envs\qm-tools\lib\share\psi4\basis\aug-cc-pvdz.gbs 
    atoms 2-3, 5-6 entry H          line    40 file C:\Users\64292\Anaconda3\envs\qm-tools\lib\share\psi4\basis\aug-cc-pvdz.gbs 


         ---------------------------------------------------------
                                   SCF
               by Justin Turney, Rob Parrish, Andy Simmonett
                          and Daniel G. A. Smith
                              RHF Reference
                        1 Threads,    476 MiB Core
         ---------------------------------------------------------

  ==> Geometry <==

    Molecular point group: cs
    Full point group: Cs

    Geometry (in Bohr), charge = 0, multiplicity = 1:

       Center              X                  Y                   Z               Mass       
    ------------   -----------------  -----------------  -----------------  -----------------
         O            0.051183389256     3.021563736858     0.000000000000    15.994914619570
         H            0.051183389256     1.131837611401     0.000000000000     1.007825032230
         H           -1.778185228229     3.495351970776     0.000000000000     1.007825032230
      Gh(O)           0.051183389256    -2.836587252061     0.000000000000    15.994914619570
      Gh(H)          -1.585367441586    -3.781450314790     0.000000000000     1.007825032230
      Gh(H)           1.687734220097    -3.781450314790     0.000000000000     1.007825032230

  Running in cs symmetry.

  Rotational constants: A =      7.04720  B =      0.18973  C =      0.18476 [cm^-1]
  Rotational constants: A = 211269.71288  B =   5687.96664  C =   5538.84556 [MHz]
  Nuclear repulsion =    8.801420354575150

  Charge       = 0
  Multiplicity = 1
  Electrons    = 10
  Nalpha       = 5
  Nbeta        = 5

  ==> Algorithm <==

  SCF Algorithm Type is DF.
  DIIS enabled.
  MOM disabled.
  Fractional occupation disabled.
  Guess Type is SAD.
  Energy threshold   = 1.00e-06
  Density threshold  = 1.00e-06
  Integral threshold = 1.00e-12

  ==> Primary Basis <==

  Basis Set: AUG-CC-PVDZ
    Blend: AUG-CC-PVDZ
    Number of shells: 38
    Number of basis functions: 82
    Number of Cartesian functions: 86
    Spherical Harmonics?: true
    Max angular momentum: 2

   => Loading Basis Set <=

    Name: (AUG-CC-PVDZ AUX)
    Role: JKFIT
    Keyword: DF_BASIS_SCF
    atoms 1, 4     entry O          line   270 file C:\Users\64292\Anaconda3\envs\qm-tools\lib\share\psi4\basis\aug-cc-pvdz-jkfit.gbs 
    atoms 2-3, 5-6 entry H          line    70 file C:\Users\64292\Anaconda3\envs\qm-tools\lib\share\psi4\basis\aug-cc-pvdz-jkfit.gbs 

  ==> Integral Setup <==

  DFHelper Memory: AOs need 0.017 GiB; user supplied 0.349 GiB. Using in-core AOs.

  ==> MemDFJK: Density-Fitted J/K Matrices <==

    J tasked:                   Yes
    K tasked:                   Yes
    wK tasked:                   No
    OpenMP threads:               1
    Memory [MiB]:               357
    Algorithm:                 Core
    Schwarz Cutoff:           1E-12
    Mask sparsity (%):       0.0000
    Fitting Condition:        1E-10

   => Auxiliary Basis Set <=

  Basis Set: (AUG-CC-PVDZ AUX)
    Blend: AUG-CC-PVDZ-JKFIT
    Number of shells: 104
    Number of basis functions: 300
    Number of Cartesian functions: 342
    Spherical Harmonics?: true
    Max angular momentum: 3

  Minimum eigenvalue in the overlap matrix is 1.9283845129E-03.
  Reciprocal condition number of the overlap matrix is 2.6778152667E-04.
    Using symmetric orthogonalization.

  ==> Pre-Iterations <==

  SCF Guess: Superposition of Atomic Densities via on-the-fly atomic UHF (no occupation information).

   -------------------------
    Irrep   Nso     Nmo    
   -------------------------
     A'        60      60 
     A"        22      22 
   -------------------------
    Total      82      82
   -------------------------

  ==> Iterations <==

                           Total Energy        Delta E     RMS |[F,P]|

   @DF-RHF iter SAD:   -75.41487088781311   -7.54149e+01   0.00000e+00 
   @DF-RHF iter   1:   -75.94941554405040   -5.34545e-01   7.06446e-03 DIIS/ADIIS
   @DF-RHF iter   2:   -76.00129492296188   -5.18794e-02   4.84383e-03 DIIS/ADIIS
   @DF-RHF iter   3:   -76.03524109953395   -3.39462e-02   3.67623e-04 DIIS/ADIIS
   @DF-RHF iter   4:   -76.03570235072672   -4.61251e-04   8.46418e-05 DIIS
   @DF-RHF iter   5:   -76.03573250346780   -3.01527e-05   2.00810e-05 DIIS
   @DF-RHF iter   6:   -76.03573508205848   -2.57859e-06   3.96739e-06 DIIS
   @DF-RHF iter   7:   -76.03573518545394   -1.03395e-07   6.46953e-07 DIIS
  Energy and wave function converged.


  ==> Post-Iterations <==

    Orbital Energies [Eh]
    ---------------------

    Doubly Occupied:                                                      

       1Ap   -20.584245     2Ap    -1.335642     3Ap    -0.696502  
       4Ap    -0.577373     1App   -0.506068  

    Virtual:                                                              

       5Ap     0.024608     6Ap     0.049028     7Ap     0.059109  
       8Ap     0.083127     2App    0.137697     9Ap     0.141273  
      10Ap     0.178600    11Ap     0.195058     3App    0.220121  
      12Ap     0.226410    13Ap     0.227961    14Ap     0.269007  
      15Ap     0.322611    16Ap     0.351417    17Ap     0.381306  
       4App    0.394980    18Ap     0.403439     5App    0.418181  
       6App    0.439748    19Ap     0.465951    20Ap     0.472780  
       7App    0.486930    21Ap     0.496767    22Ap     0.547810  
      23Ap     0.583908    24Ap     0.634775    25Ap     0.651261  
      26Ap     0.772552    27Ap     0.835391     8App    0.909700  
      28Ap     0.948220    29Ap     1.036868     9App    1.108328  
      30Ap     1.145625    10App    1.171311    31Ap     1.189394  
      32Ap     1.206060    33Ap     1.279689    11App    1.292386  
      34Ap     1.307690    12App    1.332208    35Ap     1.361351  
      36Ap     1.426555    37Ap     1.508207    13App    1.552148  
      38Ap     1.729470    39Ap     1.993633    14App    1.995129  
      40Ap     2.048297    15App    2.092137    41Ap     2.303063  
      42Ap     2.363626    16App    2.379661    17App    2.390129  
      43Ap     2.433395    44Ap     2.487555    45Ap     2.578665  
      46Ap     2.735734    47Ap     2.907859    48Ap     2.987778  
      49Ap     3.400148    18App    3.674968    50Ap     3.708972  
      19App    3.719985    51Ap     3.938820    52Ap     3.962994  
      53Ap     4.062536    54Ap     4.277691    20App    4.884104  
      21App    4.938767    55Ap     5.053398    56Ap     5.325883  
      57Ap     5.342095    22App    5.580773    58Ap     6.332787  
      59Ap     6.810375    60Ap    33.526852  

    Final Occupation by Irrep:
             Ap   App 
    DOCC [     4,    1 ]

  @DF-RHF Final Energy:   -76.03573518545394

   => Energetics <=

    Nuclear Repulsion Energy =              8.8014203545751499
    One-Electron Energy =                -122.2746285228400467
    Two-Electron Energy =                  37.4374729828109665
    Total Energy =                        -76.0357351854539445

Computation Completed


Properties will be evaluated at   0.000000,   0.000000,   0.000000 [a0]

Properties computed using the SCF density matrix


 Multipole Moments:

 ------------------------------------------------------------------------------------
     Multipole            Electronic (a.u.)      Nuclear  (a.u.)        Total (a.u.)
 ------------------------------------------------------------------------------------

 L = 1.  Multiply by 2.5417464519 to convert [e a0] to [Debye]
 Dipole X            :          0.6853515           -1.3175347           -0.6321833
 Dipole Y            :        -29.2889142           28.7996995           -0.4892147
 Dipole Z            :          0.0000000            0.0000000            0.0000000
 Magnitude           :                                                    0.7993664

 ------------------------------------------------------------------------------------

*** tstop() called on Lenovo-Y540-Zoha at Tue Sep 27 18:43:31 2022
Module time:
	user time   =        nan seconds =        nan minutes
	system time =        nan seconds =        nan minutes
	total time  =          1 seconds =       0.02 minutes
Total time:
	user time   =        nan seconds =        nan minutes
	system time =        nan seconds =        nan minutes
	total time  =       1030 seconds =      17.17 minutes

    Psi4 stopped on: Tuesday, 27 September 2022 06:43PM
    Psi4 wall time for execution: 0:00:01.03


    -----------------------------------------------------------------------
          Psi4: An Open-Source Ab Initio Electronic Structure Package
                               Psi4 1.6.1 release

                         Git: Rev {HEAD} 5b9f6e3 


    D. G. A. Smith, L. A. Burns, A. C. Simmonett, R. M. Parrish,
    M. C. Schieber, R. Galvelis, P. Kraus, H. Kruse, R. Di Remigio,
    A. Alenaizan, A. M. James, S. Lehtola, J. P. Misiewicz, M. Scheurer,
    R. A. Shaw, J. B. Schriber, Y. Xie, Z. L. Glick, D. A. Sirianni,
    J. S. O'Brien, J. M. Waldrop, A. Kumar, E. G. Hohenstein,
    B. P. Pritchard, B. R. Brooks, H. F. Schaefer III, A. Yu. Sokolov,
    K. Patkowski, A. E. DePrince III, U. Bozkaya, R. A. King,
    F. A. Evangelista, J. M. Turney, T. D. Crawford, C. D. Sherrill,
    J. Chem. Phys. 152(18) 184108 (2020). https://doi.org/10.1063/5.0006002

                            Additional Code Authors
    E. T. Seidl, C. L. Janssen, E. F. Valeev, M. L. Leininger,
    J. F. Gonthier, R. M. Richard, H. R. McAlexander, M. Saitow, X. Wang,
    P. Verma, M. H. Lechner, and A. Jiang

             Previous Authors, Complete List of Code Contributors,
                       and Citations for Specific Modules
    https://github.com/psi4/psi4/blob/master/codemeta.json
    https://github.com/psi4/psi4/graphs/contributors
    http://psicode.org/psi4manual/master/introduction.html#citing-psifour

    -----------------------------------------------------------------------


    Psi4 started on: Tuesday, 27 September 2022 06:25PM

    Process ID: 10544
    Host:       Lenovo-Y540-Zoha
    PSIDATADIR: C:\Users\64292\Anaconda3\envs\qm-tools\lib\share\psi4
    Memory:     476.8 MiB
    Threads:    1
    
  ==> Input QCSchema <==

--------------------------------------------------------------------------
{'driver': 'energy',
 'extras': {'psiapi': True, 'wfn_qcvars_only': True},
 'id': None,
 'keywords': {'function_kwargs': {}},
 'model': {'basis': 'aug-cc-pvdz', 'method': 'scf'},
 'molecule': {'atom_labels': ['1', '2', '3', '5', '6', '7'],
              'atomic_numbers': [8, 1, 1, 8, 1, 1],
              'fix_com': True,
              'fix_orientation': True,
              'fragment_charges': [0.0, 0.0],
              'fragment_multiplicities': [1, 1],
              'fragments': [[0, 1, 2], [3, 4, 5]],
              'geometry': [0.05118338925575477, 3.021563736858451, 0.0, 0.05118338925575477, 1.131837611400623, 0.0,
                           -1.7781852282291912, 3.4953519707763827, 0.0, 0.05118338925575477, -2.8365872520608164, 0.0,
                           -1.585367441585863, -3.7814503147897307, 0.0, 1.687734220097374, -3.7814503147897303, 0.0],
              'mass_numbers': [16, 1, 1, 16, 1, 1],
              'masses': [15.99491461957, 1.00782503223, 1.00782503223, 15.99491461957, 1.00782503223, 1.00782503223],
              'molecular_charge': 0.0,
              'molecular_multiplicity': 1,
              'name': 'H4O2',
              'provenance': {'creator': 'QCElemental',
                             'routine': 'qcelemental.molparse.from_string',
                             'version': 'v0.25.0'},
              'real': [True, True, True, True, True, True],
              'schema_name': 'qcschema_molecule',
              'schema_version': 2,
              'symbols': ['O', 'H', 'H', 'O', 'H', 'H'],
              'validated': True},
 'protocols': {'stdout': True},
 'provenance': {'creator': 'QCElemental', 'routine': 'qcelemental.models.results', 'version': 'v0.25.0'},
 'schema_name': 'qcschema_input',
 'schema_version': 1}
--------------------------------------------------------------------------

Scratch directory: C:\Users\64292\AppData\Local\Temp/

*** tstart() called on Lenovo-Y540-Zoha
*** at Tue Sep 27 18:43:31 2022

   => Loading Basis Set <=

    Name: AUG-CC-PVDZ
    Role: ORBITAL
    Keyword: BASIS
    atoms 1, 4     entry O          line   254 file C:\Users\64292\Anaconda3\envs\qm-tools\lib\share\psi4\basis\aug-cc-pvdz.gbs 
    atoms 2-3, 5-6 entry H          line    40 file C:\Users\64292\Anaconda3\envs\qm-tools\lib\share\psi4\basis\aug-cc-pvdz.gbs 


         ---------------------------------------------------------
                                   SCF
               by Justin Turney, Rob Parrish, Andy Simmonett
                          and Daniel G. A. Smith
                              RHF Reference
                        1 Threads,    476 MiB Core
         ---------------------------------------------------------

  ==> Geometry <==

    Molecular point group: cs
    Full point group: Cs

    Geometry (in Bohr), charge = 0, multiplicity = 1:

       Center              X                  Y                   Z               Mass       
    ------------   -----------------  -----------------  -----------------  -----------------
         O            0.051183389256     3.021563736858     0.000000000000    15.994914619570
         H            0.051183389256     1.131837611401     0.000000000000     1.007825032230
         H           -1.778185228229     3.495351970776     0.000000000000     1.007825032230
         O            0.051183389256    -2.836587252061     0.000000000000    15.994914619570
         H           -1.585367441586    -3.781450314790     0.000000000000     1.007825032230
         H            1.687734220097    -3.781450314790     0.000000000000     1.007825032230

  Running in cs symmetry.

  Rotational constants: A =      7.04720  B =      0.18973  C =      0.18476 [cm^-1]
  Rotational constants: A = 211269.71288  B =   5687.96664  C =   5538.84556 [MHz]
  Nuclear repulsion =   34.662738663856281

  Charge       = 0
  Multiplicity = 1
  Electrons    = 20
  Nalpha       = 10
  Nbeta        = 10

  ==> Algorithm <==

  SCF Algorithm Type is DF.
  DIIS enabled.
  MOM disabled.
  Fractional occupation disabled.
  Guess Type is SAD.
  Energy threshold   = 1.00e-06
  Density threshold  = 1.00e-06
  Integral threshold = 1.00e-12

  ==> Primary Basis <==

  Basis Set: AUG-CC-PVDZ
    Blend: AUG-CC-PVDZ
    Number of shells: 38
    Number of basis functions: 82
    Number of Cartesian functions: 86
    Spherical Harmonics?: true
    Max angular momentum: 2

   => Loading Basis Set <=

    Name: (AUG-CC-PVDZ AUX)
    Role: JKFIT
    Keyword: DF_BASIS_SCF
    atoms 1, 4     entry O          line   270 file C:\Users\64292\Anaconda3\envs\qm-tools\lib\share\psi4\basis\aug-cc-pvdz-jkfit.gbs 
    atoms 2-3, 5-6 entry H          line    70 file C:\Users\64292\Anaconda3\envs\qm-tools\lib\share\psi4\basis\aug-cc-pvdz-jkfit.gbs 

  ==> Integral Setup <==

  DFHelper Memory: AOs need 0.017 GiB; user supplied 0.349 GiB. Using in-core AOs.

  ==> MemDFJK: Density-Fitted J/K Matrices <==

    J tasked:                   Yes
    K tasked:                   Yes
    wK tasked:                   No
    OpenMP threads:               1
    Memory [MiB]:               357
    Algorithm:                 Core
    Schwarz Cutoff:           1E-12
    Mask sparsity (%):       0.0000
    Fitting Condition:        1E-10

   => Auxiliary Basis Set <=

  Basis Set: (AUG-CC-PVDZ AUX)
    Blend: AUG-CC-PVDZ-JKFIT
    Number of shells: 104
    Number of basis functions: 300
    Number of Cartesian functions: 342
    Spherical Harmonics?: true
    Max angular momentum: 3

  Minimum eigenvalue in the overlap matrix is 1.9283845129E-03.
  Reciprocal condition number of the overlap matrix is 2.6778152667E-04.
    Using symmetric orthogonalization.

  ==> Pre-Iterations <==

  SCF Guess: Superposition of Atomic Densities via on-the-fly atomic UHF (no occupation information).

   -------------------------
    Irrep   Nso     Nmo    
   -------------------------
     A'        60      60 
     A"        22      22 
   -------------------------
    Total      82      82
   -------------------------

  ==> Iterations <==

                           Total Energy        Delta E     RMS |[F,P]|

   @DF-RHF iter SAD:  -150.87282544413091   -1.50873e+02   0.00000e+00 
   @DF-RHF iter   1:  -151.91177358326092   -1.03895e+00   9.68114e-03 DIIS/ADIIS
   @DF-RHF iter   2:  -152.01184156332096   -1.00068e-01   6.38815e-03 DIIS/ADIIS
   @DF-RHF iter   3:  -152.07051849628951   -5.86769e-02   5.44508e-04 DIIS/ADIIS
   @DF-RHF iter   4:  -152.07150642920897   -9.87933e-04   1.15893e-04 DIIS/ADIIS
   @DF-RHF iter   5:  -152.07156323779009   -5.68086e-05   3.57990e-05 DIIS
   @DF-RHF iter   6:  -152.07156874518950   -5.50740e-06   1.63019e-05 DIIS
   @DF-RHF iter   7:  -152.07156955146397   -8.06274e-07   3.28580e-06 DIIS
   @DF-RHF iter   8:  -152.07156961884800   -6.73840e-08   5.84910e-07 DIIS
  Energy and wave function converged.


  ==> Post-Iterations <==

    Orbital Energies [Eh]
    ---------------------

    Doubly Occupied:                                                      

       1Ap   -20.598955     2Ap   -20.553148     3Ap    -1.350886  
       4Ap    -1.306729     5Ap    -0.744828     6Ap    -0.672297  
       7Ap    -0.581414     8Ap    -0.542948     1App   -0.525532  
       2App   -0.477206  

    Virtual:                                                              

       9Ap     0.025541    10Ap     0.048916    11Ap     0.058858  
      12Ap     0.091247     3App    0.174050    13Ap     0.179169  
      14Ap     0.195643    15Ap     0.213431    16Ap     0.233094  
       4App    0.239591    17Ap     0.246840    18Ap     0.266929  
      19Ap     0.301231    20Ap     0.310341     5App    0.358791  
      21Ap     0.363454     6App    0.412632    22Ap     0.433719  
       7App    0.441156    23Ap     0.458468     8App    0.524673  
      24Ap     0.525846    25Ap     0.536114    26Ap     0.585084  
      27Ap     0.630918    28Ap     0.656437    29Ap     0.670076  
      30Ap     0.781322    31Ap     0.859366    32Ap     0.880920  
      33Ap     0.938209    34Ap     0.997101     9App    1.058284  
      10App    1.124419    11App    1.141385    35Ap     1.172479  
      36Ap     1.189493    12App    1.227582    37Ap     1.327004  
      38Ap     1.438051    13App    1.461634    39Ap     1.508669  
      40Ap     1.534380    14App    1.595284    41Ap     1.615615  
      42Ap     1.954144    43Ap     1.976047    15App    2.015657  
      16App    2.027245    44Ap     2.030296    17App    2.037543  
      18App    2.124902    45Ap     2.346904    46Ap     2.376230  
      47Ap     2.449709    48Ap     2.485041    49Ap     2.510375  
      50Ap     2.719902    51Ap     2.757918    52Ap     2.805634  
      53Ap     2.964568    54Ap     3.023669    19App    3.651353  
      20App    3.676879    21App    3.706007    55Ap     3.737362  
      22App    3.764691    56Ap     3.777389    57Ap     4.073655  
      58Ap     4.121100    59Ap     4.176097    60Ap     4.342244  

    Final Occupation by Irrep:
             Ap   App 
    DOCC [     8,    2 ]

  @DF-RHF Final Energy:  -152.07156961884800

   => Energetics <=

    Nuclear Repulsion Energy =             34.6627386638562811
    One-Electron Energy =                -278.7607115865897640
    Two-Electron Energy =                  92.0264033038854592
    Total Energy =                       -152.0715696188480024

Computation Completed


Properties will be evaluated at   0.000000,   0.000000,   0.000000 [a0]

Properties computed using the SCF density matrix


 Multipole Moments:

 ------------------------------------------------------------------------------------
     Multipole            Electronic (a.u.)      Nuclear  (a.u.)        Total (a.u.)
 ------------------------------------------------------------------------------------

 L = 1.  Multiply by 2.5417464519 to convert [e a0] to [Debye]
 Dipole X            :          0.1996964           -0.8057008           -0.6060044
 Dipole Y            :          0.0704916           -1.4558992           -1.3854075
 Dipole Z            :          0.0000000            0.0000000            0.0000000
 Magnitude           :                                                    1.5121493

 ------------------------------------------------------------------------------------

*** tstop() called on Lenovo-Y540-Zoha at Tue Sep 27 18:43:32 2022
Module time:
	user time   =        nan seconds =        nan minutes
	system time =        nan seconds =        nan minutes
	total time  =          1 seconds =       0.02 minutes
Total time:
	user time   =        nan seconds =        nan minutes
	system time =        nan seconds =        nan minutes
	total time  =       1031 seconds =      17.18 minutes

    Psi4 stopped on: Tuesday, 27 September 2022 06:43PM
    Psi4 wall time for execution: 0:00:01.04


  //>>>>>>>>>>>>>>>>>>>>>>>>>>>>>>>>>>>//
  //          ManyBody Results         //
  //<<<<<<<<<<<<<<<<<<<<<<<<<<<<<<<<<<<//


   ==> N-Body: Counterpoise Corrected (CP) energies <==

        n-Body     Total Energy            Interaction Energy                          N-body Contribution to Interaction Energy
                   [Eh]                    [Eh]                  [kcal/mol]            [Eh]                  [kcal/mol]
             1  N/A                         0.000000000000        0.000000000000        0.000000000000        0.000000000000
  FULL/RTN   2  N/A                        -0.005926076653       -3.718669242159       -0.005926076653       -3.718669242159

