
Scratch directory: C:\Users\64292\AppData\Local\Temp/

  //>>>>>>>>>>>>>>>>>>>>>>>>>>>>>>>>>>>>>//
  // ManyBody Setup: N-Body Levels [1, 2]//
  //<<<<<<<<<<<<<<<<<<<<<<<<<<<<<<<<<<<<<//

        Number of 1-body computations:     2
        Number of 2-body computations:     1

    -----------------------------------------------------------------------
          Psi4: An Open-Source Ab Initio Electronic Structure Package
                               Psi4 1.6.1 release

                         Git: Rev {HEAD} 5b9f6e3 


    D. G. A. Smith, L. A. Burns, A. C. Simmonett, R. M. Parrish,
    M. C. Schieber, R. Galvelis, P. Kraus, H. Kruse, R. Di Remigio,
    A. Alenaizan, A. M. James, S. Lehtola, J. P. Misiewicz, M. Scheurer,
    R. A. Shaw, J. B. Schriber, Y. Xie, Z. L. Glick, D. A. Sirianni,
    J. S. O'Brien, J. M. Waldrop, A. Kumar, E. G. Hohenstein,
    B. P. Pritchard, B. R. Brooks, H. F. Schaefer III, A. Yu. Sokolov,
    K. Patkowski, A. E. DePrince III, U. Bozkaya, R. A. King,
    F. A. Evangelista, J. M. Turney, T. D. Crawford, C. D. Sherrill,
    J. Chem. Phys. 152(18) 184108 (2020). https://doi.org/10.1063/5.0006002

                            Additional Code Authors
    E. T. Seidl, C. L. Janssen, E. F. Valeev, M. L. Leininger,
    J. F. Gonthier, R. M. Richard, H. R. McAlexander, M. Saitow, X. Wang,
    P. Verma, M. H. Lechner, and A. Jiang

             Previous Authors, Complete List of Code Contributors,
                       and Citations for Specific Modules
    https://github.com/psi4/psi4/blob/master/codemeta.json
    https://github.com/psi4/psi4/graphs/contributors
    http://psicode.org/psi4manual/master/introduction.html#citing-psifour

    -----------------------------------------------------------------------


    Psi4 started on: Tuesday, 27 September 2022 06:25PM

    Process ID: 10544
    Host:       Lenovo-Y540-Zoha
    PSIDATADIR: C:\Users\64292\Anaconda3\envs\qm-tools\lib\share\psi4
    Memory:     476.8 MiB
    Threads:    1
    
  ==> Input QCSchema <==

--------------------------------------------------------------------------
{'driver': 'energy',
 'extras': {'psiapi': True, 'wfn_qcvars_only': True},
 'id': None,
 'keywords': {'function_kwargs': {}},
 'model': {'basis': 'aug-cc-pvdz', 'method': 'scf'},
 'molecule': {'atom_labels': ['1', '2', '3', '5', '6', '7'],
              'atomic_numbers': [8, 1, 1, 8, 1, 1],
              'fix_com': True,
              'fix_orientation': True,
              'fragment_charges': [0.0, 0.0],
              'fragment_multiplicities': [1, 1],
              'fragments': [[0, 1, 2], [3, 4, 5]],
              'geometry': [4.3150013943022856e-17, -0.051183389255754747, -3.2105363494042334, 4.3150013943022856e-17,
                           -0.051183389255754747, -1.320810223946406, 4.3150013943022856e-17, 1.7781852282291912,
                           -3.684324583322165, 4.3150013943022856e-17, -0.051183389255754747, 3.0255598646065995,
                           1.1572161902445863, 1.1060328009888307, 3.970422927335512, -1.1572161902445879,
                           -1.2083995795003424, 3.970422927335511],
              'mass_numbers': [16, 1, 1, 16, 1, 1],
              'masses': [15.99491461957, 1.00782503223, 1.00782503223, 15.99491461957, 1.00782503223, 1.00782503223],
              'molecular_charge': 0.0,
              'molecular_multiplicity': 1,
              'name': 'H4O2',
              'provenance': {'creator': 'QCElemental',
                             'routine': 'qcelemental.molparse.from_string',
                             'version': 'v0.25.0'},
              'real': [False, False, False, True, True, True],
              'schema_name': 'qcschema_molecule',
              'schema_version': 2,
              'symbols': ['O', 'H', 'H', 'O', 'H', 'H'],
              'validated': True},
 'protocols': {'stdout': True},
 'provenance': {'creator': 'QCElemental', 'routine': 'qcelemental.models.results', 'version': 'v0.25.0'},
 'schema_name': 'qcschema_input',
 'schema_version': 1}
--------------------------------------------------------------------------

Scratch directory: C:\Users\64292\AppData\Local\Temp/

*** tstart() called on Lenovo-Y540-Zoha
*** at Tue Sep 27 18:47:44 2022

   => Loading Basis Set <=

    Name: AUG-CC-PVDZ
    Role: ORBITAL
    Keyword: BASIS
    atoms 1, 4     entry O          line   254 file C:\Users\64292\Anaconda3\envs\qm-tools\lib\share\psi4\basis\aug-cc-pvdz.gbs 
    atoms 2-3, 5-6 entry H          line    40 file C:\Users\64292\Anaconda3\envs\qm-tools\lib\share\psi4\basis\aug-cc-pvdz.gbs 


         ---------------------------------------------------------
                                   SCF
               by Justin Turney, Rob Parrish, Andy Simmonett
                          and Daniel G. A. Smith
                              RHF Reference
                        1 Threads,    476 MiB Core
         ---------------------------------------------------------

  ==> Geometry <==

    Molecular point group: c1
    Full point group: C1

    Geometry (in Bohr), charge = 0, multiplicity = 1:

       Center              X                  Y                   Z               Mass       
    ------------   -----------------  -----------------  -----------------  -----------------
      Gh(O)           0.000000000000    -0.051183389256    -3.210536349404    15.994914619570
      Gh(H)           0.000000000000    -0.051183389256    -1.320810223946     1.007825032230
      Gh(H)           0.000000000000     1.778185228229    -3.684324583322     1.007825032230
         O            0.000000000000    -0.051183389256     3.025559864607    15.994914619570
         H            1.157216190245     1.106032800989     3.970422927336     1.007825032230
         H           -1.157216190245    -1.208399579500     3.970422927336     1.007825032230

  Running in c1 symmetry.

  Rotational constants: A =      7.04413  B =      0.16732  C =      0.16447 [cm^-1]
  Rotational constants: A = 211177.76654  B =   5016.24128  C =   4930.61218 [MHz]
  Nuclear repulsion =    8.772355975749345

  Charge       = 0
  Multiplicity = 1
  Electrons    = 10
  Nalpha       = 5
  Nbeta        = 5

  ==> Algorithm <==

  SCF Algorithm Type is DF.
  DIIS enabled.
  MOM disabled.
  Fractional occupation disabled.
  Guess Type is SAD.
  Energy threshold   = 1.00e-06
  Density threshold  = 1.00e-06
  Integral threshold = 1.00e-12

  ==> Primary Basis <==

  Basis Set: AUG-CC-PVDZ
    Blend: AUG-CC-PVDZ
    Number of shells: 38
    Number of basis functions: 82
    Number of Cartesian functions: 86
    Spherical Harmonics?: true
    Max angular momentum: 2

   => Loading Basis Set <=

    Name: (AUG-CC-PVDZ AUX)
    Role: JKFIT
    Keyword: DF_BASIS_SCF
    atoms 1, 4     entry O          line   270 file C:\Users\64292\Anaconda3\envs\qm-tools\lib\share\psi4\basis\aug-cc-pvdz-jkfit.gbs 
    atoms 2-3, 5-6 entry H          line    70 file C:\Users\64292\Anaconda3\envs\qm-tools\lib\share\psi4\basis\aug-cc-pvdz-jkfit.gbs 

  ==> Integral Setup <==

  DFHelper Memory: AOs need 0.017 GiB; user supplied 0.349 GiB. Using in-core AOs.

  ==> MemDFJK: Density-Fitted J/K Matrices <==

    J tasked:                   Yes
    K tasked:                   Yes
    wK tasked:                   No
    OpenMP threads:               1
    Memory [MiB]:               357
    Algorithm:                 Core
    Schwarz Cutoff:           1E-12
    Mask sparsity (%):       0.0000
    Fitting Condition:        1E-10

   => Auxiliary Basis Set <=

  Basis Set: (AUG-CC-PVDZ AUX)
    Blend: AUG-CC-PVDZ-JKFIT
    Number of shells: 104
    Number of basis functions: 300
    Number of Cartesian functions: 342
    Spherical Harmonics?: true
    Max angular momentum: 3

  Minimum eigenvalue in the overlap matrix is 2.1839701998E-03.
  Reciprocal condition number of the overlap matrix is 3.1394261047E-04.
    Using symmetric orthogonalization.

  ==> Pre-Iterations <==

  SCF Guess: Superposition of Atomic Densities via on-the-fly atomic UHF (no occupation information).

   -------------------------
    Irrep   Nso     Nmo    
   -------------------------
     A         82      82 
   -------------------------
    Total      82      82
   -------------------------

  ==> Iterations <==

                           Total Energy        Delta E     RMS |[F,P]|

   @DF-RHF iter SAD:   -75.40236287281671   -7.54024e+01   0.00000e+00 
   @DF-RHF iter   1:   -75.94508064981731   -5.42718e-01   5.50779e-03 DIIS/ADIIS
   @DF-RHF iter   2:   -75.99625990655517   -5.11793e-02   3.72933e-03 DIIS/ADIIS
   @DF-RHF iter   3:   -76.02934787759951   -3.30880e-02   2.79182e-04 DIIS/ADIIS
   @DF-RHF iter   4:   -76.02981889748369   -4.71020e-04   6.67433e-05 DIIS
   @DF-RHF iter   5:   -76.02985148843217   -3.25909e-05   1.62921e-05 DIIS
   @DF-RHF iter   6:   -76.02985456185328   -3.07342e-06   3.49538e-06 DIIS
   @DF-RHF iter   7:   -76.02985471664692   -1.54794e-07   6.41571e-07 DIIS
  Energy and wave function converged.


  ==> Post-Iterations <==

    Orbital Energies [Eh]
    ---------------------

    Doubly Occupied:                                                      

       1A    -20.575761     2A     -1.325851     3A     -0.721204  
       4A     -0.548254     5A     -0.500715  

    Virtual:                                                              

       6A      0.032711     7A      0.052836     8A      0.055927  
       9A      0.082163    10A      0.161061    11A      0.170098  
      12A      0.181328    13A      0.197629    14A      0.212799  
      15A      0.223178    16A      0.237160    17A      0.251698  
      18A      0.308705    19A      0.328666    20A      0.371647  
      21A      0.401129    22A      0.434162    23A      0.451571  
      24A      0.456986    25A      0.488771    26A      0.514227  
      27A      0.526305    28A      0.545479    29A      0.565069  
      30A      0.609404    31A      0.642949    32A      0.659077  
      33A      0.700313    34A      0.860944    35A      0.876390  
      36A      0.921583    37A      0.935359    38A      1.114390  
      39A      1.143426    40A      1.146588    41A      1.201104  
      42A      1.236813    43A      1.280863    44A      1.333482  
      45A      1.358372    46A      1.387390    47A      1.422810  
      48A      1.454031    49A      1.526153    50A      1.565730  
      51A      1.872220    52A      1.985191    53A      2.045491  
      54A      2.048998    55A      2.058355    56A      2.273283  
      57A      2.368180    58A      2.409362    59A      2.441304  
      60A      2.463872    61A      2.524525    62A      2.565832  
      63A      2.690877    64A      2.793137    65A      2.909349  
      66A      3.419379    67A      3.684418    68A      3.700878  
      69A      3.789109    70A      3.904629    71A      4.073443  
      72A      4.142956    73A      4.181407    74A      4.909278  
      75A      4.954826    76A      4.992657    77A      5.165358  
      78A      5.478434    79A      5.646149    80A      6.398627  
      81A      6.838297    82A     33.566336  

    Final Occupation by Irrep:
              A 
    DOCC [     5 ]

  @DF-RHF Final Energy:   -76.02985471664692

   => Energetics <=

    Nuclear Repulsion Energy =              8.7723559757493454
    One-Electron Energy =                -122.2608129360146876
    Two-Electron Energy =                  37.4586022436184152
    Total Energy =                        -76.0298547166469234

Computation Completed


Properties will be evaluated at   0.000000,   0.000000,   0.000000 [a0]

Properties computed using the SCF density matrix


 Multipole Moments:

 ------------------------------------------------------------------------------------
     Multipole            Electronic (a.u.)      Nuclear  (a.u.)        Total (a.u.)
 ------------------------------------------------------------------------------------

 L = 1.  Multiply by 2.5417464519 to convert [e a0] to [Debye]
 Dipole X            :          0.0001080           -0.0000000            0.0001080
 Dipole Y            :          0.5116628           -0.5118339           -0.0001711
 Dipole Z            :        -31.4585213           32.1453248            0.6868035
 Magnitude           :                                                    0.6868035

 ------------------------------------------------------------------------------------

*** tstop() called on Lenovo-Y540-Zoha at Tue Sep 27 18:47:45 2022
Module time:
	user time   =        nan seconds =        nan minutes
	system time =        nan seconds =        nan minutes
	total time  =          1 seconds =       0.02 minutes
Total time:
	user time   =        nan seconds =        nan minutes
	system time =        nan seconds =        nan minutes
	total time  =       1284 seconds =      21.40 minutes

    Psi4 stopped on: Tuesday, 27 September 2022 06:47PM
    Psi4 wall time for execution: 0:00:01.07


    -----------------------------------------------------------------------
          Psi4: An Open-Source Ab Initio Electronic Structure Package
                               Psi4 1.6.1 release

                         Git: Rev {HEAD} 5b9f6e3 


    D. G. A. Smith, L. A. Burns, A. C. Simmonett, R. M. Parrish,
    M. C. Schieber, R. Galvelis, P. Kraus, H. Kruse, R. Di Remigio,
    A. Alenaizan, A. M. James, S. Lehtola, J. P. Misiewicz, M. Scheurer,
    R. A. Shaw, J. B. Schriber, Y. Xie, Z. L. Glick, D. A. Sirianni,
    J. S. O'Brien, J. M. Waldrop, A. Kumar, E. G. Hohenstein,
    B. P. Pritchard, B. R. Brooks, H. F. Schaefer III, A. Yu. Sokolov,
    K. Patkowski, A. E. DePrince III, U. Bozkaya, R. A. King,
    F. A. Evangelista, J. M. Turney, T. D. Crawford, C. D. Sherrill,
    J. Chem. Phys. 152(18) 184108 (2020). https://doi.org/10.1063/5.0006002

                            Additional Code Authors
    E. T. Seidl, C. L. Janssen, E. F. Valeev, M. L. Leininger,
    J. F. Gonthier, R. M. Richard, H. R. McAlexander, M. Saitow, X. Wang,
    P. Verma, M. H. Lechner, and A. Jiang

             Previous Authors, Complete List of Code Contributors,
                       and Citations for Specific Modules
    https://github.com/psi4/psi4/blob/master/codemeta.json
    https://github.com/psi4/psi4/graphs/contributors
    http://psicode.org/psi4manual/master/introduction.html#citing-psifour

    -----------------------------------------------------------------------


    Psi4 started on: Tuesday, 27 September 2022 06:25PM

    Process ID: 10544
    Host:       Lenovo-Y540-Zoha
    PSIDATADIR: C:\Users\64292\Anaconda3\envs\qm-tools\lib\share\psi4
    Memory:     476.8 MiB
    Threads:    1
    
  ==> Input QCSchema <==

--------------------------------------------------------------------------
{'driver': 'energy',
 'extras': {'psiapi': True, 'wfn_qcvars_only': True},
 'id': None,
 'keywords': {'function_kwargs': {}},
 'model': {'basis': 'aug-cc-pvdz', 'method': 'scf'},
 'molecule': {'atom_labels': ['1', '2', '3', '5', '6', '7'],
              'atomic_numbers': [8, 1, 1, 8, 1, 1],
              'fix_com': True,
              'fix_orientation': True,
              'fragment_charges': [0.0, 0.0],
              'fragment_multiplicities': [1, 1],
              'fragments': [[0, 1, 2], [3, 4, 5]],
              'geometry': [4.3150013943022856e-17, -0.051183389255754747, -3.2105363494042334, 4.3150013943022856e-17,
                           -0.051183389255754747, -1.320810223946406, 4.3150013943022856e-17, 1.7781852282291912,
                           -3.684324583322165, 4.3150013943022856e-17, -0.051183389255754747, 3.0255598646065995,
                           1.1572161902445863, 1.1060328009888307, 3.970422927335512, -1.1572161902445879,
                           -1.2083995795003424, 3.970422927335511],
              'mass_numbers': [16, 1, 1, 16, 1, 1],
              'masses': [15.99491461957, 1.00782503223, 1.00782503223, 15.99491461957, 1.00782503223, 1.00782503223],
              'molecular_charge': 0.0,
              'molecular_multiplicity': 1,
              'name': 'H4O2',
              'provenance': {'creator': 'QCElemental',
                             'routine': 'qcelemental.molparse.from_string',
                             'version': 'v0.25.0'},
              'real': [True, True, True, False, False, False],
              'schema_name': 'qcschema_molecule',
              'schema_version': 2,
              'symbols': ['O', 'H', 'H', 'O', 'H', 'H'],
              'validated': True},
 'protocols': {'stdout': True},
 'provenance': {'creator': 'QCElemental', 'routine': 'qcelemental.models.results', 'version': 'v0.25.0'},
 'schema_name': 'qcschema_input',
 'schema_version': 1}
--------------------------------------------------------------------------

Scratch directory: C:\Users\64292\AppData\Local\Temp/

*** tstart() called on Lenovo-Y540-Zoha
*** at Tue Sep 27 18:47:45 2022

   => Loading Basis Set <=

    Name: AUG-CC-PVDZ
    Role: ORBITAL
    Keyword: BASIS
    atoms 1, 4     entry O          line   254 file C:\Users\64292\Anaconda3\envs\qm-tools\lib\share\psi4\basis\aug-cc-pvdz.gbs 
    atoms 2-3, 5-6 entry H          line    40 file C:\Users\64292\Anaconda3\envs\qm-tools\lib\share\psi4\basis\aug-cc-pvdz.gbs 


         ---------------------------------------------------------
                                   SCF
               by Justin Turney, Rob Parrish, Andy Simmonett
                          and Daniel G. A. Smith
                              RHF Reference
                        1 Threads,    476 MiB Core
         ---------------------------------------------------------

  ==> Geometry <==

    Molecular point group: c1
    Full point group: C1

    Geometry (in Bohr), charge = 0, multiplicity = 1:

       Center              X                  Y                   Z               Mass       
    ------------   -----------------  -----------------  -----------------  -----------------
         O            0.000000000000    -0.051183389256    -3.210536349404    15.994914619570
         H            0.000000000000    -0.051183389256    -1.320810223946     1.007825032230
         H            0.000000000000     1.778185228229    -3.684324583322     1.007825032230
      Gh(O)           0.000000000000    -0.051183389256     3.025559864607    15.994914619570
      Gh(H)           1.157216190245     1.106032800989     3.970422927336     1.007825032230
      Gh(H)          -1.157216190245    -1.208399579500     3.970422927336     1.007825032230

  Running in c1 symmetry.

  Rotational constants: A =      7.04413  B =      0.16732  C =      0.16447 [cm^-1]
  Rotational constants: A = 211177.76654  B =   5016.24128  C =   4930.61218 [MHz]
  Nuclear repulsion =    8.801420354575152

  Charge       = 0
  Multiplicity = 1
  Electrons    = 10
  Nalpha       = 5
  Nbeta        = 5

  ==> Algorithm <==

  SCF Algorithm Type is DF.
  DIIS enabled.
  MOM disabled.
  Fractional occupation disabled.
  Guess Type is SAD.
  Energy threshold   = 1.00e-06
  Density threshold  = 1.00e-06
  Integral threshold = 1.00e-12

  ==> Primary Basis <==

  Basis Set: AUG-CC-PVDZ
    Blend: AUG-CC-PVDZ
    Number of shells: 38
    Number of basis functions: 82
    Number of Cartesian functions: 86
    Spherical Harmonics?: true
    Max angular momentum: 2

   => Loading Basis Set <=

    Name: (AUG-CC-PVDZ AUX)
    Role: JKFIT
    Keyword: DF_BASIS_SCF
    atoms 1, 4     entry O          line   270 file C:\Users\64292\Anaconda3\envs\qm-tools\lib\share\psi4\basis\aug-cc-pvdz-jkfit.gbs 
    atoms 2-3, 5-6 entry H          line    70 file C:\Users\64292\Anaconda3\envs\qm-tools\lib\share\psi4\basis\aug-cc-pvdz-jkfit.gbs 

  ==> Integral Setup <==

  DFHelper Memory: AOs need 0.017 GiB; user supplied 0.349 GiB. Using in-core AOs.

  ==> MemDFJK: Density-Fitted J/K Matrices <==

    J tasked:                   Yes
    K tasked:                   Yes
    wK tasked:                   No
    OpenMP threads:               1
    Memory [MiB]:               357
    Algorithm:                 Core
    Schwarz Cutoff:           1E-12
    Mask sparsity (%):       0.0000
    Fitting Condition:        1E-10

   => Auxiliary Basis Set <=

  Basis Set: (AUG-CC-PVDZ AUX)
    Blend: AUG-CC-PVDZ-JKFIT
    Number of shells: 104
    Number of basis functions: 300
    Number of Cartesian functions: 342
    Spherical Harmonics?: true
    Max angular momentum: 3

  Minimum eigenvalue in the overlap matrix is 2.1839701998E-03.
  Reciprocal condition number of the overlap matrix is 3.1394261047E-04.
    Using symmetric orthogonalization.

  ==> Pre-Iterations <==

  SCF Guess: Superposition of Atomic Densities via on-the-fly atomic UHF (no occupation information).

   -------------------------
    Irrep   Nso     Nmo    
   -------------------------
     A         82      82 
   -------------------------
    Total      82      82
   -------------------------

  ==> Iterations <==

                           Total Energy        Delta E     RMS |[F,P]|

   @DF-RHF iter SAD:   -75.41487092043786   -7.54149e+01   0.00000e+00 
   @DF-RHF iter   1:   -75.94941033730049   -5.34539e-01   5.50521e-03 DIIS/ADIIS
   @DF-RHF iter   2:   -76.00128708989061   -5.18768e-02   3.77443e-03 DIIS/ADIIS
   @DF-RHF iter   3:   -76.03523879130964   -3.39517e-02   2.81167e-04 DIIS/ADIIS
   @DF-RHF iter   4:   -76.03569232146381   -4.53530e-04   6.60336e-05 DIIS
   @DF-RHF iter   5:   -76.03572247438034   -3.01529e-05   1.56287e-05 DIIS
   @DF-RHF iter   6:   -76.03572504479131   -2.57041e-06   3.09130e-06 DIIS
   @DF-RHF iter   7:   -76.03572514812055   -1.03329e-07   5.04595e-07 DIIS
  Energy and wave function converged.


  ==> Post-Iterations <==

    Orbital Energies [Eh]
    ---------------------

    Doubly Occupied:                                                      

       1A    -20.584250     2A     -1.335642     3A     -0.696504  
       4A     -0.577379     5A     -0.506080  

    Virtual:                                                              

       6A      0.024565     7A      0.049098     8A      0.058349  
       9A      0.079553    10A      0.134898    11A      0.147216  
      12A      0.179020    13A      0.191290    14A      0.217860  
      15A      0.223398    16A      0.228422    17A      0.265576  
      18A      0.320311    19A      0.356079    20A      0.365506  
      21A      0.394164    22A      0.406352    23A      0.415102  
      24A      0.423720    25A      0.461685    26A      0.480916  
      27A      0.492630    28A      0.508232    29A      0.535489  
      30A      0.574555    31A      0.612035    32A      0.647776  
      33A      0.741233    34A      0.818260    35A      0.901101  
      36A      0.948574    37A      1.026768    38A      1.105654  
      39A      1.141224    40A      1.164519    41A      1.195435  
      42A      1.203958    43A      1.273653    44A      1.294608  
      45A      1.305273    46A      1.334817    47A      1.338161  
      48A      1.417283    49A      1.492922    50A      1.539386  
      51A      1.691833    52A      1.987665    53A      1.991854  
      54A      2.057784    55A      2.084124    56A      2.322175  
      57A      2.361350    58A      2.381264    59A      2.390159  
      60A      2.414432    61A      2.432414    62A      2.598308  
      63A      2.729217    64A      2.841999    65A      2.983488  
      66A      3.382586    67A      3.674354    68A      3.701990  
      69A      3.719520    70A      3.908970    71A      3.939956  
      72A      4.034430    73A      4.254991    74A      4.878071  
      75A      4.942213    76A      5.020089    77A      5.313099  
      78A      5.325942    79A      5.578118    80A      6.288758  
      81A      6.812257    82A     33.527314  

    Final Occupation by Irrep:
              A 
    DOCC [     5 ]

  @DF-RHF Final Energy:   -76.03572514812055

   => Energetics <=

    Nuclear Repulsion Energy =              8.8014203545751517
    One-Electron Energy =                -122.2745588734965594
    Two-Electron Energy =                  37.4374133708008543
    Total Energy =                        -76.0357251481205481

Computation Completed


Properties will be evaluated at   0.000000,   0.000000,   0.000000 [a0]

Properties computed using the SCF density matrix


 Multipole Moments:

 ------------------------------------------------------------------------------------
     Multipole            Electronic (a.u.)      Nuclear  (a.u.)        Total (a.u.)
 ------------------------------------------------------------------------------------

 L = 1.  Multiply by 2.5417464519 to convert [e a0] to [Debye]
 Dipole X            :          0.0000724            0.0000000            0.0000724
 Dipole Y            :         -0.6853175            1.3175347            0.6322172
 Dipole Z            :         31.1786813          -30.6894256            0.4892557
 Magnitude           :                                                    0.7994184

 ------------------------------------------------------------------------------------

*** tstop() called on Lenovo-Y540-Zoha at Tue Sep 27 18:47:46 2022
Module time:
	user time   =        nan seconds =        nan minutes
	system time =        nan seconds =        nan minutes
	total time  =          1 seconds =       0.02 minutes
Total time:
	user time   =        nan seconds =        nan minutes
	system time =        nan seconds =        nan minutes
	total time  =       1285 seconds =      21.42 minutes

    Psi4 stopped on: Tuesday, 27 September 2022 06:47PM
    Psi4 wall time for execution: 0:00:00.99


    -----------------------------------------------------------------------
          Psi4: An Open-Source Ab Initio Electronic Structure Package
                               Psi4 1.6.1 release

                         Git: Rev {HEAD} 5b9f6e3 


    D. G. A. Smith, L. A. Burns, A. C. Simmonett, R. M. Parrish,
    M. C. Schieber, R. Galvelis, P. Kraus, H. Kruse, R. Di Remigio,
    A. Alenaizan, A. M. James, S. Lehtola, J. P. Misiewicz, M. Scheurer,
    R. A. Shaw, J. B. Schriber, Y. Xie, Z. L. Glick, D. A. Sirianni,
    J. S. O'Brien, J. M. Waldrop, A. Kumar, E. G. Hohenstein,
    B. P. Pritchard, B. R. Brooks, H. F. Schaefer III, A. Yu. Sokolov,
    K. Patkowski, A. E. DePrince III, U. Bozkaya, R. A. King,
    F. A. Evangelista, J. M. Turney, T. D. Crawford, C. D. Sherrill,
    J. Chem. Phys. 152(18) 184108 (2020). https://doi.org/10.1063/5.0006002

                            Additional Code Authors
    E. T. Seidl, C. L. Janssen, E. F. Valeev, M. L. Leininger,
    J. F. Gonthier, R. M. Richard, H. R. McAlexander, M. Saitow, X. Wang,
    P. Verma, M. H. Lechner, and A. Jiang

             Previous Authors, Complete List of Code Contributors,
                       and Citations for Specific Modules
    https://github.com/psi4/psi4/blob/master/codemeta.json
    https://github.com/psi4/psi4/graphs/contributors
    http://psicode.org/psi4manual/master/introduction.html#citing-psifour

    -----------------------------------------------------------------------


    Psi4 started on: Tuesday, 27 September 2022 06:25PM

    Process ID: 10544
    Host:       Lenovo-Y540-Zoha
    PSIDATADIR: C:\Users\64292\Anaconda3\envs\qm-tools\lib\share\psi4
    Memory:     476.8 MiB
    Threads:    1
    
  ==> Input QCSchema <==

--------------------------------------------------------------------------
{'driver': 'energy',
 'extras': {'psiapi': True, 'wfn_qcvars_only': True},
 'id': None,
 'keywords': {'function_kwargs': {}},
 'model': {'basis': 'aug-cc-pvdz', 'method': 'scf'},
 'molecule': {'atom_labels': ['1', '2', '3', '5', '6', '7'],
              'atomic_numbers': [8, 1, 1, 8, 1, 1],
              'fix_com': True,
              'fix_orientation': True,
              'fragment_charges': [0.0, 0.0],
              'fragment_multiplicities': [1, 1],
              'fragments': [[0, 1, 2], [3, 4, 5]],
              'geometry': [4.3150013943022856e-17, -0.051183389255754747, -3.2105363494042334, 4.3150013943022856e-17,
                           -0.051183389255754747, -1.320810223946406, 4.3150013943022856e-17, 1.7781852282291912,
                           -3.684324583322165, 4.3150013943022856e-17, -0.051183389255754747, 3.0255598646065995,
                           1.1572161902445863, 1.1060328009888307, 3.970422927335512, -1.1572161902445879,
                           -1.2083995795003424, 3.970422927335511],
              'mass_numbers': [16, 1, 1, 16, 1, 1],
              'masses': [15.99491461957, 1.00782503223, 1.00782503223, 15.99491461957, 1.00782503223, 1.00782503223],
              'molecular_charge': 0.0,
              'molecular_multiplicity': 1,
              'name': 'H4O2',
              'provenance': {'creator': 'QCElemental',
                             'routine': 'qcelemental.molparse.from_string',
                             'version': 'v0.25.0'},
              'real': [True, True, True, True, True, True],
              'schema_name': 'qcschema_molecule',
              'schema_version': 2,
              'symbols': ['O', 'H', 'H', 'O', 'H', 'H'],
              'validated': True},
 'protocols': {'stdout': True},
 'provenance': {'creator': 'QCElemental', 'routine': 'qcelemental.models.results', 'version': 'v0.25.0'},
 'schema_name': 'qcschema_input',
 'schema_version': 1}
--------------------------------------------------------------------------

Scratch directory: C:\Users\64292\AppData\Local\Temp/

*** tstart() called on Lenovo-Y540-Zoha
*** at Tue Sep 27 18:47:46 2022

   => Loading Basis Set <=

    Name: AUG-CC-PVDZ
    Role: ORBITAL
    Keyword: BASIS
    atoms 1, 4     entry O          line   254 file C:\Users\64292\Anaconda3\envs\qm-tools\lib\share\psi4\basis\aug-cc-pvdz.gbs 
    atoms 2-3, 5-6 entry H          line    40 file C:\Users\64292\Anaconda3\envs\qm-tools\lib\share\psi4\basis\aug-cc-pvdz.gbs 


         ---------------------------------------------------------
                                   SCF
               by Justin Turney, Rob Parrish, Andy Simmonett
                          and Daniel G. A. Smith
                              RHF Reference
                        1 Threads,    476 MiB Core
         ---------------------------------------------------------

  ==> Geometry <==

    Molecular point group: c1
    Full point group: C1

    Geometry (in Bohr), charge = 0, multiplicity = 1:

       Center              X                  Y                   Z               Mass       
    ------------   -----------------  -----------------  -----------------  -----------------
         O            0.000000000000    -0.051183389256    -3.210536349404    15.994914619570
         H            0.000000000000    -0.051183389256    -1.320810223946     1.007825032230
         H            0.000000000000     1.778185228229    -3.684324583322     1.007825032230
         O            0.000000000000    -0.051183389256     3.025559864607    15.994914619570
         H            1.157216190245     1.106032800989     3.970422927336     1.007825032230
         H           -1.157216190245    -1.208399579500     3.970422927336     1.007825032230

  Running in c1 symmetry.

  Rotational constants: A =      7.04413  B =      0.16732  C =      0.16447 [cm^-1]
  Rotational constants: A = 211177.76654  B =   5016.24128  C =   4930.61218 [MHz]
  Nuclear repulsion =   33.610226934145601

  Charge       = 0
  Multiplicity = 1
  Electrons    = 20
  Nalpha       = 10
  Nbeta        = 10

  ==> Algorithm <==

  SCF Algorithm Type is DF.
  DIIS enabled.
  MOM disabled.
  Fractional occupation disabled.
  Guess Type is SAD.
  Energy threshold   = 1.00e-06
  Density threshold  = 1.00e-06
  Integral threshold = 1.00e-12

  ==> Primary Basis <==

  Basis Set: AUG-CC-PVDZ
    Blend: AUG-CC-PVDZ
    Number of shells: 38
    Number of basis functions: 82
    Number of Cartesian functions: 86
    Spherical Harmonics?: true
    Max angular momentum: 2

   => Loading Basis Set <=

    Name: (AUG-CC-PVDZ AUX)
    Role: JKFIT
    Keyword: DF_BASIS_SCF
    atoms 1, 4     entry O          line   270 file C:\Users\64292\Anaconda3\envs\qm-tools\lib\share\psi4\basis\aug-cc-pvdz-jkfit.gbs 
    atoms 2-3, 5-6 entry H          line    70 file C:\Users\64292\Anaconda3\envs\qm-tools\lib\share\psi4\basis\aug-cc-pvdz-jkfit.gbs 

  ==> Integral Setup <==

  DFHelper Memory: AOs need 0.017 GiB; user supplied 0.349 GiB. Using in-core AOs.

  ==> MemDFJK: Density-Fitted J/K Matrices <==

    J tasked:                   Yes
    K tasked:                   Yes
    wK tasked:                   No
    OpenMP threads:               1
    Memory [MiB]:               357
    Algorithm:                 Core
    Schwarz Cutoff:           1E-12
    Mask sparsity (%):       0.0000
    Fitting Condition:        1E-10

   => Auxiliary Basis Set <=

  Basis Set: (AUG-CC-PVDZ AUX)
    Blend: AUG-CC-PVDZ-JKFIT
    Number of shells: 104
    Number of basis functions: 300
    Number of Cartesian functions: 342
    Spherical Harmonics?: true
    Max angular momentum: 3

  Minimum eigenvalue in the overlap matrix is 2.1839701998E-03.
  Reciprocal condition number of the overlap matrix is 3.1394261047E-04.
    Using symmetric orthogonalization.

  ==> Pre-Iterations <==

  SCF Guess: Superposition of Atomic Densities via on-the-fly atomic UHF (no occupation information).

   -------------------------
    Irrep   Nso     Nmo    
   -------------------------
     A         82      82 
   -------------------------
    Total      82      82
   -------------------------

  ==> Iterations <==

                           Total Energy        Delta E     RMS |[F,P]|

   @DF-RHF iter SAD:  -150.85233139714546   -1.50852e+02   0.00000e+00 
   @DF-RHF iter   1:  -151.90954611258022   -1.05721e+00   7.59711e-03 DIIS/ADIIS
   @DF-RHF iter   2:  -152.00974466311871   -1.00199e-01   5.05333e-03 DIIS/ADIIS
   @DF-RHF iter   3:  -152.07028693988539   -6.05423e-02   4.07467e-04 DIIS/ADIIS
   @DF-RHF iter   4:  -152.07123015865454   -9.43219e-04   8.98518e-05 DIIS
   @DF-RHF iter   5:  -152.07128705785226   -5.68992e-05   2.52067e-05 DIIS
   @DF-RHF iter   6:  -152.07129233655942   -5.27871e-06   1.12555e-05 DIIS
   @DF-RHF iter   7:  -152.07129293678693   -6.00228e-07   2.66154e-06 DIIS
   @DF-RHF iter   8:  -152.07129300536155   -6.85746e-08   4.46036e-07 DIIS
  Energy and wave function converged.


  ==> Post-Iterations <==

    Orbital Energies [Eh]
    ---------------------

    Doubly Occupied:                                                      

       1A    -20.595564     2A    -20.558570     3A     -1.346634  
       4A     -1.311289     5A     -0.741069     6A     -0.674034  
       7A     -0.576370     8A     -0.549163     9A     -0.521479  
      10A     -0.482026  

    Virtual:                                                              

      11A      0.026465    12A      0.050079    13A      0.056752  
      14A      0.088917    15A      0.174975    16A      0.182820  
      17A      0.196295    18A      0.213004    19A      0.228753  
      20A      0.234883    21A      0.246353    22A      0.271949  
      23A      0.296887    24A      0.307628    25A      0.346812  
      26A      0.363425    27A      0.400865    28A      0.420802  
      29A      0.433843    30A      0.467609    31A      0.512544  
      32A      0.531013    33A      0.537646    34A      0.581776  
      35A      0.628825    36A      0.648466    37A      0.664500  
      38A      0.773762    39A      0.842041    40A      0.861319  
      41A      0.903325    42A      0.976007    43A      1.073793  
      44A      1.127837    45A      1.134617    46A      1.172255  
      47A      1.206335    48A      1.214608    49A      1.334099  
      50A      1.423797    51A      1.459410    52A      1.491898  
      53A      1.514220    54A      1.582255    55A      1.610755  
      56A      1.893993    57A      1.952693    58A      2.014171  
      59A      2.022557    60A      2.030903    61A      2.041919  
      62A      2.111931    63A      2.351717    64A      2.385498  
      65A      2.425124    66A      2.468171    67A      2.513248  
      68A      2.689068    69A      2.746151    70A      2.770572  
      71A      2.923659    72A      3.010147    73A      3.648921  
      74A      3.680671    75A      3.700295    76A      3.731832  
      77A      3.744253    78A      3.755737    79A      4.053602  
      80A      4.122127    81A      4.166577    82A      4.296075  

    Final Occupation by Irrep:
              A 
    DOCC [    10 ]

  @DF-RHF Final Energy:  -152.07129300536155

   => Energetics <=

    Nuclear Repulsion Energy =             33.6102269341456008
    One-Electron Energy =                -276.6506184054345567
    Two-Electron Energy =                  90.9690984659274022
    Total Energy =                       -152.0712930053615537

Computation Completed


Properties will be evaluated at   0.000000,   0.000000,   0.000000 [a0]

Properties computed using the SCF density matrix


 Multipole Moments:

 ------------------------------------------------------------------------------------
     Multipole            Electronic (a.u.)      Nuclear  (a.u.)        Total (a.u.)
 ------------------------------------------------------------------------------------

 L = 1.  Multiply by 2.5417464519 to convert [e a0] to [Debye]
 Dipole X            :         -0.0011464           -0.0000000           -0.0011464
 Dipole Y            :         -0.1933516            0.8057008            0.6123493
 Dipole Z            :         -0.1145577            1.4558992            1.3413415
 Magnitude           :                                                    1.4745067

 ------------------------------------------------------------------------------------

*** tstop() called on Lenovo-Y540-Zoha at Tue Sep 27 18:47:47 2022
Module time:
	user time   =        nan seconds =        nan minutes
	system time =        nan seconds =        nan minutes
	total time  =          1 seconds =       0.02 minutes
Total time:
	user time   =        nan seconds =        nan minutes
	system time =        nan seconds =        nan minutes
	total time  =       1286 seconds =      21.43 minutes

    Psi4 stopped on: Tuesday, 27 September 2022 06:47PM
    Psi4 wall time for execution: 0:00:01.02


  //>>>>>>>>>>>>>>>>>>>>>>>>>>>>>>>>>>>//
  //          ManyBody Results         //
  //<<<<<<<<<<<<<<<<<<<<<<<<<<<<<<<<<<<//


   ==> N-Body: Counterpoise Corrected (CP) energies <==

        n-Body     Total Energy            Interaction Energy                          N-body Contribution to Interaction Energy
                   [Eh]                    [Eh]                  [kcal/mol]            [Eh]                  [kcal/mol]
             1  N/A                         0.000000000000        0.000000000000        0.000000000000        0.000000000000
  FULL/RTN   2  N/A                        -0.005713140594       -3.585049847810       -0.005713140594       -3.585049847810

