
Scratch directory: C:\Users\64292\AppData\Local\Temp/

  //>>>>>>>>>>>>>>>>>>>>>>>>>>>>>>>>>>>>>//
  // ManyBody Setup: N-Body Levels [1, 2]//
  //<<<<<<<<<<<<<<<<<<<<<<<<<<<<<<<<<<<<<//

        Number of 1-body computations:     2
        Number of 2-body computations:     1

    -----------------------------------------------------------------------
          Psi4: An Open-Source Ab Initio Electronic Structure Package
                               Psi4 1.6.1 release

                         Git: Rev {HEAD} 5b9f6e3 


    D. G. A. Smith, L. A. Burns, A. C. Simmonett, R. M. Parrish,
    M. C. Schieber, R. Galvelis, P. Kraus, H. Kruse, R. Di Remigio,
    A. Alenaizan, A. M. James, S. Lehtola, J. P. Misiewicz, M. Scheurer,
    R. A. Shaw, J. B. Schriber, Y. Xie, Z. L. Glick, D. A. Sirianni,
    J. S. O'Brien, J. M. Waldrop, A. Kumar, E. G. Hohenstein,
    B. P. Pritchard, B. R. Brooks, H. F. Schaefer III, A. Yu. Sokolov,
    K. Patkowski, A. E. DePrince III, U. Bozkaya, R. A. King,
    F. A. Evangelista, J. M. Turney, T. D. Crawford, C. D. Sherrill,
    J. Chem. Phys. 152(18) 184108 (2020). https://doi.org/10.1063/5.0006002

                            Additional Code Authors
    E. T. Seidl, C. L. Janssen, E. F. Valeev, M. L. Leininger,
    J. F. Gonthier, R. M. Richard, H. R. McAlexander, M. Saitow, X. Wang,
    P. Verma, M. H. Lechner, and A. Jiang

             Previous Authors, Complete List of Code Contributors,
                       and Citations for Specific Modules
    https://github.com/psi4/psi4/blob/master/codemeta.json
    https://github.com/psi4/psi4/graphs/contributors
    http://psicode.org/psi4manual/master/introduction.html#citing-psifour

    -----------------------------------------------------------------------


    Psi4 started on: Tuesday, 27 September 2022 06:25PM

    Process ID: 10544
    Host:       Lenovo-Y540-Zoha
    PSIDATADIR: C:\Users\64292\Anaconda3\envs\qm-tools\lib\share\psi4
    Memory:     476.8 MiB
    Threads:    1
    
  ==> Input QCSchema <==

--------------------------------------------------------------------------
{'driver': 'energy',
 'extras': {'psiapi': True, 'wfn_qcvars_only': True},
 'id': None,
 'keywords': {'function_kwargs': {}},
 'model': {'basis': 'aug-cc-pvdz', 'method': 'scf'},
 'molecule': {'atom_labels': ['1', '2', '3', '5', '6', '7'],
              'atomic_numbers': [8, 1, 1, 8, 1, 1],
              'fix_com': True,
              'fix_orientation': True,
              'fragment_charges': [0.0, 0.0],
              'fragment_multiplicities': [1, 1],
              'fragments': [[0, 1, 2], [3, 4, 5]],
              'geometry': [3.08214385307306e-17, -0.05118338925575476, -3.021563736858451, 3.08214385307306e-17,
                           -0.05118338925575476, -1.131837611400623, 3.08214385307306e-17, 1.7781852282291912,
                           -3.4953519707763827, 3.08214385307306e-17, -0.05118338925575476, 2.8365872520608164,
                           1.1572161902445866, 1.106032800988831, 3.7814503147897307, -1.1572161902445877,
                           -1.2083995795003422, 3.7814503147897303],
              'mass_numbers': [16, 1, 1, 16, 1, 1],
              'masses': [15.99491461957, 1.00782503223, 1.00782503223, 15.99491461957, 1.00782503223, 1.00782503223],
              'molecular_charge': 0.0,
              'molecular_multiplicity': 1,
              'name': 'H4O2',
              'provenance': {'creator': 'QCElemental',
                             'routine': 'qcelemental.molparse.from_string',
                             'version': 'v0.25.0'},
              'real': [False, False, False, True, True, True],
              'schema_name': 'qcschema_molecule',
              'schema_version': 2,
              'symbols': ['O', 'H', 'H', 'O', 'H', 'H'],
              'validated': True},
 'protocols': {'stdout': True},
 'provenance': {'creator': 'QCElemental', 'routine': 'qcelemental.models.results', 'version': 'v0.25.0'},
 'schema_name': 'qcschema_input',
 'schema_version': 1}
--------------------------------------------------------------------------

Scratch directory: C:\Users\64292\AppData\Local\Temp/

*** tstart() called on Lenovo-Y540-Zoha
*** at Tue Sep 27 18:44:43 2022

   => Loading Basis Set <=

    Name: AUG-CC-PVDZ
    Role: ORBITAL
    Keyword: BASIS
    atoms 1, 4     entry O          line   254 file C:\Users\64292\Anaconda3\envs\qm-tools\lib\share\psi4\basis\aug-cc-pvdz.gbs 
    atoms 2-3, 5-6 entry H          line    40 file C:\Users\64292\Anaconda3\envs\qm-tools\lib\share\psi4\basis\aug-cc-pvdz.gbs 


         ---------------------------------------------------------
                                   SCF
               by Justin Turney, Rob Parrish, Andy Simmonett
                          and Daniel G. A. Smith
                              RHF Reference
                        1 Threads,    476 MiB Core
         ---------------------------------------------------------

  ==> Geometry <==

    Molecular point group: c1
    Full point group: C1

    Geometry (in Bohr), charge = 0, multiplicity = 1:

       Center              X                  Y                   Z               Mass       
    ------------   -----------------  -----------------  -----------------  -----------------
      Gh(O)           0.000000000000    -0.051183389256    -3.021563736858    15.994914619570
      Gh(H)           0.000000000000    -0.051183389256    -1.131837611401     1.007825032230
      Gh(H)           0.000000000000     1.778185228229    -3.495351970776     1.007825032230
         O            0.000000000000    -0.051183389256     2.836587252061    15.994914619570
         H            1.157216190245     1.106032800989     3.781450314790     1.007825032230
         H           -1.157216190245    -1.208399579500     3.781450314790     1.007825032230

  Running in c1 symmetry.

  Rotational constants: A =      7.04625  B =      0.18905  C =      0.18541 [cm^-1]
  Rotational constants: A = 211241.11792  B =   5667.47535  C =   5558.43545 [MHz]
  Nuclear repulsion =    8.772355975749340

  Charge       = 0
  Multiplicity = 1
  Electrons    = 10
  Nalpha       = 5
  Nbeta        = 5

  ==> Algorithm <==

  SCF Algorithm Type is DF.
  DIIS enabled.
  MOM disabled.
  Fractional occupation disabled.
  Guess Type is SAD.
  Energy threshold   = 1.00e-06
  Density threshold  = 1.00e-06
  Integral threshold = 1.00e-12

  ==> Primary Basis <==

  Basis Set: AUG-CC-PVDZ
    Blend: AUG-CC-PVDZ
    Number of shells: 38
    Number of basis functions: 82
    Number of Cartesian functions: 86
    Spherical Harmonics?: true
    Max angular momentum: 2

   => Loading Basis Set <=

    Name: (AUG-CC-PVDZ AUX)
    Role: JKFIT
    Keyword: DF_BASIS_SCF
    atoms 1, 4     entry O          line   270 file C:\Users\64292\Anaconda3\envs\qm-tools\lib\share\psi4\basis\aug-cc-pvdz-jkfit.gbs 
    atoms 2-3, 5-6 entry H          line    70 file C:\Users\64292\Anaconda3\envs\qm-tools\lib\share\psi4\basis\aug-cc-pvdz-jkfit.gbs 

  ==> Integral Setup <==

  DFHelper Memory: AOs need 0.017 GiB; user supplied 0.349 GiB. Using in-core AOs.

  ==> MemDFJK: Density-Fitted J/K Matrices <==

    J tasked:                   Yes
    K tasked:                   Yes
    wK tasked:                   No
    OpenMP threads:               1
    Memory [MiB]:               357
    Algorithm:                 Core
    Schwarz Cutoff:           1E-12
    Mask sparsity (%):       0.0000
    Fitting Condition:        1E-10

   => Auxiliary Basis Set <=

  Basis Set: (AUG-CC-PVDZ AUX)
    Blend: AUG-CC-PVDZ-JKFIT
    Number of shells: 104
    Number of basis functions: 300
    Number of Cartesian functions: 342
    Spherical Harmonics?: true
    Max angular momentum: 3

  Minimum eigenvalue in the overlap matrix is 2.0604290374E-03.
  Reciprocal condition number of the overlap matrix is 2.8615968495E-04.
    Using symmetric orthogonalization.

  ==> Pre-Iterations <==

  SCF Guess: Superposition of Atomic Densities via on-the-fly atomic UHF (no occupation information).

   -------------------------
    Irrep   Nso     Nmo    
   -------------------------
     A         82      82 
   -------------------------
    Total      82      82
   -------------------------

  ==> Iterations <==

                           Total Energy        Delta E     RMS |[F,P]|

   @DF-RHF iter SAD:   -75.40236277300278   -7.54024e+01   0.00000e+00 
   @DF-RHF iter   1:   -75.94511552416783   -5.42753e-01   5.50894e-03 DIIS/ADIIS
   @DF-RHF iter   2:   -75.99630541765494   -5.11899e-02   3.73099e-03 DIIS/ADIIS
   @DF-RHF iter   3:   -76.02939927048050   -3.30939e-02   2.79139e-04 DIIS/ADIIS
   @DF-RHF iter   4:   -76.02987027268240   -4.71002e-04   6.67567e-05 DIIS
   @DF-RHF iter   5:   -76.02990287647361   -3.26038e-05   1.62944e-05 DIIS
   @DF-RHF iter   6:   -76.02990595133765   -3.07486e-06   3.49795e-06 DIIS
   @DF-RHF iter   7:   -76.02990610642127   -1.55084e-07   6.43009e-07 DIIS
  Energy and wave function converged.


  ==> Post-Iterations <==

    Orbital Energies [Eh]
    ---------------------

    Doubly Occupied:                                                      

       1A    -20.575777     2A     -1.325823     3A     -0.721177  
       4A     -0.548237     5A     -0.500665  

    Virtual:                                                              

       6A      0.032607     7A      0.053467     8A      0.056110  
       9A      0.082505    10A      0.162150    11A      0.172212  
      12A      0.181745    13A      0.197852    14A      0.213899  
      15A      0.223256    16A      0.239588    17A      0.251737  
      18A      0.313377    19A      0.327667    20A      0.370345  
      21A      0.403424    22A      0.439261    23A      0.452592  
      24A      0.462743    25A      0.495970    26A      0.521907  
      27A      0.531756    28A      0.545142    29A      0.568770  
      30A      0.620425    31A      0.647744    32A      0.662365  
      33A      0.710140    34A      0.868331    35A      0.878430  
      36A      0.934148    37A      0.946102    38A      1.126562  
      39A      1.146789    40A      1.161140    41A      1.208017  
      42A      1.234082    43A      1.284370    44A      1.336377  
      45A      1.376257    46A      1.400280    47A      1.429809  
      48A      1.469990    49A      1.550225    50A      1.578331  
      51A      1.821657    52A      1.998865    53A      2.049069  
      54A      2.057155    55A      2.121347    56A      2.296694  
      57A      2.369650    58A      2.412490    59A      2.452884  
      60A      2.475414    61A      2.532999    62A      2.601718  
      63A      2.703845    64A      2.835451    65A      2.930018  
      66A      3.427310    67A      3.700639    68A      3.703237  
      69A      3.827601    70A      3.909665    71A      4.081054  
      72A      4.145160    73A      4.189052    74A      4.912047  
      75A      4.958067    76A      4.998319    77A      5.180514  
      78A      5.487615    79A      5.665370    80A      6.438325  
      81A      6.866329    82A     33.569563  

    Final Occupation by Irrep:
              A 
    DOCC [     5 ]

  @DF-RHF Final Energy:   -76.02990610642127

   => Energetics <=

    Nuclear Repulsion Energy =              8.7723559757493401
    One-Electron Energy =                -122.2611292312051603
    Two-Electron Energy =                  37.4588671490345604
    Total Energy =                        -76.0299061064212651

Computation Completed


Properties will be evaluated at   0.000000,   0.000000,   0.000000 [a0]

Properties computed using the SCF density matrix


 Multipole Moments:

 ------------------------------------------------------------------------------------
     Multipole            Electronic (a.u.)      Nuclear  (a.u.)        Total (a.u.)
 ------------------------------------------------------------------------------------

 L = 1.  Multiply by 2.5417464519 to convert [e a0] to [Debye]
 Dipole X            :          0.0001291           -0.0000000            0.0001291
 Dipole Y            :          0.5116028           -0.5118339           -0.0002311
 Dipole Z            :        -29.5698438           30.2555986            0.6857548
 Magnitude           :                                                    0.6857549

 ------------------------------------------------------------------------------------

*** tstop() called on Lenovo-Y540-Zoha at Tue Sep 27 18:44:44 2022
Module time:
	user time   =        nan seconds =        nan minutes
	system time =        nan seconds =        nan minutes
	total time  =          1 seconds =       0.02 minutes
Total time:
	user time   =        nan seconds =        nan minutes
	system time =        nan seconds =        nan minutes
	total time  =       1103 seconds =      18.38 minutes

    Psi4 stopped on: Tuesday, 27 September 2022 06:44PM
    Psi4 wall time for execution: 0:00:01.01


    -----------------------------------------------------------------------
          Psi4: An Open-Source Ab Initio Electronic Structure Package
                               Psi4 1.6.1 release

                         Git: Rev {HEAD} 5b9f6e3 


    D. G. A. Smith, L. A. Burns, A. C. Simmonett, R. M. Parrish,
    M. C. Schieber, R. Galvelis, P. Kraus, H. Kruse, R. Di Remigio,
    A. Alenaizan, A. M. James, S. Lehtola, J. P. Misiewicz, M. Scheurer,
    R. A. Shaw, J. B. Schriber, Y. Xie, Z. L. Glick, D. A. Sirianni,
    J. S. O'Brien, J. M. Waldrop, A. Kumar, E. G. Hohenstein,
    B. P. Pritchard, B. R. Brooks, H. F. Schaefer III, A. Yu. Sokolov,
    K. Patkowski, A. E. DePrince III, U. Bozkaya, R. A. King,
    F. A. Evangelista, J. M. Turney, T. D. Crawford, C. D. Sherrill,
    J. Chem. Phys. 152(18) 184108 (2020). https://doi.org/10.1063/5.0006002

                            Additional Code Authors
    E. T. Seidl, C. L. Janssen, E. F. Valeev, M. L. Leininger,
    J. F. Gonthier, R. M. Richard, H. R. McAlexander, M. Saitow, X. Wang,
    P. Verma, M. H. Lechner, and A. Jiang

             Previous Authors, Complete List of Code Contributors,
                       and Citations for Specific Modules
    https://github.com/psi4/psi4/blob/master/codemeta.json
    https://github.com/psi4/psi4/graphs/contributors
    http://psicode.org/psi4manual/master/introduction.html#citing-psifour

    -----------------------------------------------------------------------


    Psi4 started on: Tuesday, 27 September 2022 06:25PM

    Process ID: 10544
    Host:       Lenovo-Y540-Zoha
    PSIDATADIR: C:\Users\64292\Anaconda3\envs\qm-tools\lib\share\psi4
    Memory:     476.8 MiB
    Threads:    1
    
  ==> Input QCSchema <==

--------------------------------------------------------------------------
{'driver': 'energy',
 'extras': {'psiapi': True, 'wfn_qcvars_only': True},
 'id': None,
 'keywords': {'function_kwargs': {}},
 'model': {'basis': 'aug-cc-pvdz', 'method': 'scf'},
 'molecule': {'atom_labels': ['1', '2', '3', '5', '6', '7'],
              'atomic_numbers': [8, 1, 1, 8, 1, 1],
              'fix_com': True,
              'fix_orientation': True,
              'fragment_charges': [0.0, 0.0],
              'fragment_multiplicities': [1, 1],
              'fragments': [[0, 1, 2], [3, 4, 5]],
              'geometry': [3.08214385307306e-17, -0.05118338925575476, -3.021563736858451, 3.08214385307306e-17,
                           -0.05118338925575476, -1.131837611400623, 3.08214385307306e-17, 1.7781852282291912,
                           -3.4953519707763827, 3.08214385307306e-17, -0.05118338925575476, 2.8365872520608164,
                           1.1572161902445866, 1.106032800988831, 3.7814503147897307, -1.1572161902445877,
                           -1.2083995795003422, 3.7814503147897303],
              'mass_numbers': [16, 1, 1, 16, 1, 1],
              'masses': [15.99491461957, 1.00782503223, 1.00782503223, 15.99491461957, 1.00782503223, 1.00782503223],
              'molecular_charge': 0.0,
              'molecular_multiplicity': 1,
              'name': 'H4O2',
              'provenance': {'creator': 'QCElemental',
                             'routine': 'qcelemental.molparse.from_string',
                             'version': 'v0.25.0'},
              'real': [True, True, True, False, False, False],
              'schema_name': 'qcschema_molecule',
              'schema_version': 2,
              'symbols': ['O', 'H', 'H', 'O', 'H', 'H'],
              'validated': True},
 'protocols': {'stdout': True},
 'provenance': {'creator': 'QCElemental', 'routine': 'qcelemental.models.results', 'version': 'v0.25.0'},
 'schema_name': 'qcschema_input',
 'schema_version': 1}
--------------------------------------------------------------------------

Scratch directory: C:\Users\64292\AppData\Local\Temp/

*** tstart() called on Lenovo-Y540-Zoha
*** at Tue Sep 27 18:44:44 2022

   => Loading Basis Set <=

    Name: AUG-CC-PVDZ
    Role: ORBITAL
    Keyword: BASIS
    atoms 1, 4     entry O          line   254 file C:\Users\64292\Anaconda3\envs\qm-tools\lib\share\psi4\basis\aug-cc-pvdz.gbs 
    atoms 2-3, 5-6 entry H          line    40 file C:\Users\64292\Anaconda3\envs\qm-tools\lib\share\psi4\basis\aug-cc-pvdz.gbs 


         ---------------------------------------------------------
                                   SCF
               by Justin Turney, Rob Parrish, Andy Simmonett
                          and Daniel G. A. Smith
                              RHF Reference
                        1 Threads,    476 MiB Core
         ---------------------------------------------------------

  ==> Geometry <==

    Molecular point group: c1
    Full point group: C1

    Geometry (in Bohr), charge = 0, multiplicity = 1:

       Center              X                  Y                   Z               Mass       
    ------------   -----------------  -----------------  -----------------  -----------------
         O            0.000000000000    -0.051183389256    -3.021563736858    15.994914619570
         H            0.000000000000    -0.051183389256    -1.131837611401     1.007825032230
         H            0.000000000000     1.778185228229    -3.495351970776     1.007825032230
      Gh(O)           0.000000000000    -0.051183389256     2.836587252061    15.994914619570
      Gh(H)           1.157216190245     1.106032800989     3.781450314790     1.007825032230
      Gh(H)          -1.157216190245    -1.208399579500     3.781450314790     1.007825032230

  Running in c1 symmetry.

  Rotational constants: A =      7.04625  B =      0.18905  C =      0.18541 [cm^-1]
  Rotational constants: A = 211241.11792  B =   5667.47535  C =   5558.43545 [MHz]
  Nuclear repulsion =    8.801420354575150

  Charge       = 0
  Multiplicity = 1
  Electrons    = 10
  Nalpha       = 5
  Nbeta        = 5

  ==> Algorithm <==

  SCF Algorithm Type is DF.
  DIIS enabled.
  MOM disabled.
  Fractional occupation disabled.
  Guess Type is SAD.
  Energy threshold   = 1.00e-06
  Density threshold  = 1.00e-06
  Integral threshold = 1.00e-12

  ==> Primary Basis <==

  Basis Set: AUG-CC-PVDZ
    Blend: AUG-CC-PVDZ
    Number of shells: 38
    Number of basis functions: 82
    Number of Cartesian functions: 86
    Spherical Harmonics?: true
    Max angular momentum: 2

   => Loading Basis Set <=

    Name: (AUG-CC-PVDZ AUX)
    Role: JKFIT
    Keyword: DF_BASIS_SCF
    atoms 1, 4     entry O          line   270 file C:\Users\64292\Anaconda3\envs\qm-tools\lib\share\psi4\basis\aug-cc-pvdz-jkfit.gbs 
    atoms 2-3, 5-6 entry H          line    70 file C:\Users\64292\Anaconda3\envs\qm-tools\lib\share\psi4\basis\aug-cc-pvdz-jkfit.gbs 

  ==> Integral Setup <==

  DFHelper Memory: AOs need 0.017 GiB; user supplied 0.349 GiB. Using in-core AOs.

  ==> MemDFJK: Density-Fitted J/K Matrices <==

    J tasked:                   Yes
    K tasked:                   Yes
    wK tasked:                   No
    OpenMP threads:               1
    Memory [MiB]:               357
    Algorithm:                 Core
    Schwarz Cutoff:           1E-12
    Mask sparsity (%):       0.0000
    Fitting Condition:        1E-10

   => Auxiliary Basis Set <=

  Basis Set: (AUG-CC-PVDZ AUX)
    Blend: AUG-CC-PVDZ-JKFIT
    Number of shells: 104
    Number of basis functions: 300
    Number of Cartesian functions: 342
    Spherical Harmonics?: true
    Max angular momentum: 3

  Minimum eigenvalue in the overlap matrix is 2.0604290374E-03.
  Reciprocal condition number of the overlap matrix is 2.8615968495E-04.
    Using symmetric orthogonalization.

  ==> Pre-Iterations <==

  SCF Guess: Superposition of Atomic Densities via on-the-fly atomic UHF (no occupation information).

   -------------------------
    Irrep   Nso     Nmo    
   -------------------------
     A         82      82 
   -------------------------
    Total      82      82
   -------------------------

  ==> Iterations <==

                           Total Energy        Delta E     RMS |[F,P]|

   @DF-RHF iter SAD:   -75.41487090275160   -7.54149e+01   0.00000e+00 
   @DF-RHF iter   1:   -75.94941639104668   -5.34545e-01   5.50571e-03 DIIS/ADIIS
   @DF-RHF iter   2:   -76.00129609382205   -5.18797e-02   3.77530e-03 DIIS/ADIIS
   @DF-RHF iter   3:   -76.03525144494112   -3.39554e-02   2.81158e-04 DIIS/ADIIS
   @DF-RHF iter   4:   -76.03570496648547   -4.53522e-04   6.60393e-05 DIIS
   @DF-RHF iter   5:   -76.03573513113992   -3.01647e-05   1.56352e-05 DIIS
   @DF-RHF iter   6:   -76.03573770419105   -2.57305e-06   3.09356e-06 DIIS
   @DF-RHF iter   7:   -76.03573780768329   -1.03492e-07   5.05156e-07 DIIS
  Energy and wave function converged.


  ==> Post-Iterations <==

    Orbital Energies [Eh]
    ---------------------

    Doubly Occupied:                                                      

       1A    -20.584245     2A     -1.335639     3A     -0.696497  
       4A     -0.577368     5A     -0.506070  

    Virtual:                                                              

       6A      0.024701     7A      0.049583     8A      0.058538  
       9A      0.080492    10A      0.134921    11A      0.147149  
      12A      0.180882    13A      0.193200    14A      0.219572  
      15A      0.226305    16A      0.227973    17A      0.268697  
      18A      0.325352    19A      0.360067    20A      0.363219  
      21A      0.398382    22A      0.401977    23A      0.415350  
      24A      0.425284    25A      0.468765    26A      0.484962  
      27A      0.494212    28A      0.504684    29A      0.545285  
      30A      0.581458    31A      0.618929    32A      0.648896  
      33A      0.750552    34A      0.837789    35A      0.909574  
      36A      0.959132    37A      1.040545    38A      1.108141  
      39A      1.146961    40A      1.170301    41A      1.188395  
      42A      1.203902    43A      1.277163    44A      1.296854  
      45A      1.305082    46A      1.332764    47A      1.362788  
      48A      1.427638    49A      1.499295    50A      1.559864  
      51A      1.722721    52A      1.988322    53A      1.994700  
      54A      2.054422    55A      2.086508    56A      2.326178  
      57A      2.364034    58A      2.381337    59A      2.391328  
      60A      2.434278    61A      2.463504    62A      2.579460  
      63A      2.723272    64A      2.906026    65A      2.986780  
      66A      3.402000    67A      3.675461    68A      3.705070  
      69A      3.726554    70A      3.935274    71A      3.960304  
      72A      4.050233    73A      4.274568    74A      4.894366  
      75A      4.938904    76A      5.051960    77A      5.325151  
      78A      5.341790    79A      5.585846    80A      6.334323  
      81A      6.809805    82A     33.527197  

    Final Occupation by Irrep:
              A 
    DOCC [     5 ]

  @DF-RHF Final Energy:   -76.03573780768329

   => Energetics <=

    Nuclear Repulsion Energy =              8.8014203545751499
    One-Electron Energy =                -122.2746573547643152
    Two-Electron Energy =                  37.4374991925058680
    Total Energy =                        -76.0357378076832902

Computation Completed


Properties will be evaluated at   0.000000,   0.000000,   0.000000 [a0]

Properties computed using the SCF density matrix


 Multipole Moments:

 ------------------------------------------------------------------------------------
     Multipole            Electronic (a.u.)      Nuclear  (a.u.)        Total (a.u.)
 ------------------------------------------------------------------------------------

 L = 1.  Multiply by 2.5417464519 to convert [e a0] to [Debye]
 Dipole X            :          0.0001053            0.0000000            0.0001053
 Dipole Y            :         -0.6854258            1.3175347            0.6321089
 Dipole Z            :         29.2888075          -28.7996995            0.4891080
 Magnitude           :                                                    0.7992423

 ------------------------------------------------------------------------------------

*** tstop() called on Lenovo-Y540-Zoha at Tue Sep 27 18:44:45 2022
Module time:
	user time   =        nan seconds =        nan minutes
	system time =        nan seconds =        nan minutes
	total time  =          1 seconds =       0.02 minutes
Total time:
	user time   =        nan seconds =        nan minutes
	system time =        nan seconds =        nan minutes
	total time  =       1104 seconds =      18.40 minutes

    Psi4 stopped on: Tuesday, 27 September 2022 06:44PM
    Psi4 wall time for execution: 0:00:00.97


    -----------------------------------------------------------------------
          Psi4: An Open-Source Ab Initio Electronic Structure Package
                               Psi4 1.6.1 release

                         Git: Rev {HEAD} 5b9f6e3 


    D. G. A. Smith, L. A. Burns, A. C. Simmonett, R. M. Parrish,
    M. C. Schieber, R. Galvelis, P. Kraus, H. Kruse, R. Di Remigio,
    A. Alenaizan, A. M. James, S. Lehtola, J. P. Misiewicz, M. Scheurer,
    R. A. Shaw, J. B. Schriber, Y. Xie, Z. L. Glick, D. A. Sirianni,
    J. S. O'Brien, J. M. Waldrop, A. Kumar, E. G. Hohenstein,
    B. P. Pritchard, B. R. Brooks, H. F. Schaefer III, A. Yu. Sokolov,
    K. Patkowski, A. E. DePrince III, U. Bozkaya, R. A. King,
    F. A. Evangelista, J. M. Turney, T. D. Crawford, C. D. Sherrill,
    J. Chem. Phys. 152(18) 184108 (2020). https://doi.org/10.1063/5.0006002

                            Additional Code Authors
    E. T. Seidl, C. L. Janssen, E. F. Valeev, M. L. Leininger,
    J. F. Gonthier, R. M. Richard, H. R. McAlexander, M. Saitow, X. Wang,
    P. Verma, M. H. Lechner, and A. Jiang

             Previous Authors, Complete List of Code Contributors,
                       and Citations for Specific Modules
    https://github.com/psi4/psi4/blob/master/codemeta.json
    https://github.com/psi4/psi4/graphs/contributors
    http://psicode.org/psi4manual/master/introduction.html#citing-psifour

    -----------------------------------------------------------------------


    Psi4 started on: Tuesday, 27 September 2022 06:25PM

    Process ID: 10544
    Host:       Lenovo-Y540-Zoha
    PSIDATADIR: C:\Users\64292\Anaconda3\envs\qm-tools\lib\share\psi4
    Memory:     476.8 MiB
    Threads:    1
    
  ==> Input QCSchema <==

--------------------------------------------------------------------------
{'driver': 'energy',
 'extras': {'psiapi': True, 'wfn_qcvars_only': True},
 'id': None,
 'keywords': {'function_kwargs': {}},
 'model': {'basis': 'aug-cc-pvdz', 'method': 'scf'},
 'molecule': {'atom_labels': ['1', '2', '3', '5', '6', '7'],
              'atomic_numbers': [8, 1, 1, 8, 1, 1],
              'fix_com': True,
              'fix_orientation': True,
              'fragment_charges': [0.0, 0.0],
              'fragment_multiplicities': [1, 1],
              'fragments': [[0, 1, 2], [3, 4, 5]],
              'geometry': [3.08214385307306e-17, -0.05118338925575476, -3.021563736858451, 3.08214385307306e-17,
                           -0.05118338925575476, -1.131837611400623, 3.08214385307306e-17, 1.7781852282291912,
                           -3.4953519707763827, 3.08214385307306e-17, -0.05118338925575476, 2.8365872520608164,
                           1.1572161902445866, 1.106032800988831, 3.7814503147897307, -1.1572161902445877,
                           -1.2083995795003422, 3.7814503147897303],
              'mass_numbers': [16, 1, 1, 16, 1, 1],
              'masses': [15.99491461957, 1.00782503223, 1.00782503223, 15.99491461957, 1.00782503223, 1.00782503223],
              'molecular_charge': 0.0,
              'molecular_multiplicity': 1,
              'name': 'H4O2',
              'provenance': {'creator': 'QCElemental',
                             'routine': 'qcelemental.molparse.from_string',
                             'version': 'v0.25.0'},
              'real': [True, True, True, True, True, True],
              'schema_name': 'qcschema_molecule',
              'schema_version': 2,
              'symbols': ['O', 'H', 'H', 'O', 'H', 'H'],
              'validated': True},
 'protocols': {'stdout': True},
 'provenance': {'creator': 'QCElemental', 'routine': 'qcelemental.models.results', 'version': 'v0.25.0'},
 'schema_name': 'qcschema_input',
 'schema_version': 1}
--------------------------------------------------------------------------

Scratch directory: C:\Users\64292\AppData\Local\Temp/

*** tstart() called on Lenovo-Y540-Zoha
*** at Tue Sep 27 18:44:45 2022

   => Loading Basis Set <=

    Name: AUG-CC-PVDZ
    Role: ORBITAL
    Keyword: BASIS
    atoms 1, 4     entry O          line   254 file C:\Users\64292\Anaconda3\envs\qm-tools\lib\share\psi4\basis\aug-cc-pvdz.gbs 
    atoms 2-3, 5-6 entry H          line    40 file C:\Users\64292\Anaconda3\envs\qm-tools\lib\share\psi4\basis\aug-cc-pvdz.gbs 


         ---------------------------------------------------------
                                   SCF
               by Justin Turney, Rob Parrish, Andy Simmonett
                          and Daniel G. A. Smith
                              RHF Reference
                        1 Threads,    476 MiB Core
         ---------------------------------------------------------

  ==> Geometry <==

    Molecular point group: c1
    Full point group: C1

    Geometry (in Bohr), charge = 0, multiplicity = 1:

       Center              X                  Y                   Z               Mass       
    ------------   -----------------  -----------------  -----------------  -----------------
         O            0.000000000000    -0.051183389256    -3.021563736858    15.994914619570
         H            0.000000000000    -0.051183389256    -1.131837611401     1.007825032230
         H            0.000000000000     1.778185228229    -3.495351970776     1.007825032230
         O            0.000000000000    -0.051183389256     2.836587252061    15.994914619570
         H            1.157216190245     1.106032800989     3.781450314790     1.007825032230
         H           -1.157216190245    -1.208399579500     3.781450314790     1.007825032230

  Running in c1 symmetry.

  Rotational constants: A =      7.04625  B =      0.18905  C =      0.18541 [cm^-1]
  Rotational constants: A = 211241.11792  B =   5667.47535  C =   5558.43545 [MHz]
  Nuclear repulsion =   34.662229604827665

  Charge       = 0
  Multiplicity = 1
  Electrons    = 20
  Nalpha       = 10
  Nbeta        = 10

  ==> Algorithm <==

  SCF Algorithm Type is DF.
  DIIS enabled.
  MOM disabled.
  Fractional occupation disabled.
  Guess Type is SAD.
  Energy threshold   = 1.00e-06
  Density threshold  = 1.00e-06
  Integral threshold = 1.00e-12

  ==> Primary Basis <==

  Basis Set: AUG-CC-PVDZ
    Blend: AUG-CC-PVDZ
    Number of shells: 38
    Number of basis functions: 82
    Number of Cartesian functions: 86
    Spherical Harmonics?: true
    Max angular momentum: 2

   => Loading Basis Set <=

    Name: (AUG-CC-PVDZ AUX)
    Role: JKFIT
    Keyword: DF_BASIS_SCF
    atoms 1, 4     entry O          line   270 file C:\Users\64292\Anaconda3\envs\qm-tools\lib\share\psi4\basis\aug-cc-pvdz-jkfit.gbs 
    atoms 2-3, 5-6 entry H          line    70 file C:\Users\64292\Anaconda3\envs\qm-tools\lib\share\psi4\basis\aug-cc-pvdz-jkfit.gbs 

  ==> Integral Setup <==

  DFHelper Memory: AOs need 0.017 GiB; user supplied 0.349 GiB. Using in-core AOs.

  ==> MemDFJK: Density-Fitted J/K Matrices <==

    J tasked:                   Yes
    K tasked:                   Yes
    wK tasked:                   No
    OpenMP threads:               1
    Memory [MiB]:               357
    Algorithm:                 Core
    Schwarz Cutoff:           1E-12
    Mask sparsity (%):       0.0000
    Fitting Condition:        1E-10

   => Auxiliary Basis Set <=

  Basis Set: (AUG-CC-PVDZ AUX)
    Blend: AUG-CC-PVDZ-JKFIT
    Number of shells: 104
    Number of basis functions: 300
    Number of Cartesian functions: 342
    Spherical Harmonics?: true
    Max angular momentum: 3

  Minimum eigenvalue in the overlap matrix is 2.0604290374E-03.
  Reciprocal condition number of the overlap matrix is 2.8615968495E-04.
    Using symmetric orthogonalization.

  ==> Pre-Iterations <==

  SCF Guess: Superposition of Atomic Densities via on-the-fly atomic UHF (no occupation information).

   -------------------------
    Irrep   Nso     Nmo    
   -------------------------
     A         82      82 
   -------------------------
    Total      82      82
   -------------------------

  ==> Iterations <==

                           Total Energy        Delta E     RMS |[F,P]|

   @DF-RHF iter SAD:  -150.87278075986148   -1.50873e+02   0.00000e+00 
   @DF-RHF iter   1:  -151.91206019814331   -1.03928e+00   7.54406e-03 DIIS/ADIIS
   @DF-RHF iter   2:  -152.01208884149378   -1.00029e-01   4.97928e-03 DIIS/ADIIS
   @DF-RHF iter   3:  -152.07079894121125   -5.87101e-02   4.10468e-04 DIIS/ADIIS
   @DF-RHF iter   4:  -152.07175848000969   -9.59539e-04   9.02820e-05 DIIS
   @DF-RHF iter   5:  -152.07181496696629   -5.64870e-05   2.78439e-05 DIIS
   @DF-RHF iter   6:  -152.07182042053813   -5.45357e-06   1.26859e-05 DIIS
   @DF-RHF iter   7:  -152.07182122689332   -8.06355e-07   2.56766e-06 DIIS
   @DF-RHF iter   8:  -152.07182129487319   -6.79799e-08   4.56593e-07 DIIS
  Energy and wave function converged.


  ==> Post-Iterations <==

    Orbital Energies [Eh]
    ---------------------

    Doubly Occupied:                                                      

       1A    -20.599013     2A    -20.553181     3A     -1.350900  
       4A     -1.306720     5A     -0.744759     6A     -0.672253  
       7A     -0.581425     8A     -0.543024     9A     -0.525372  
      10A     -0.477367  

    Virtual:                                                              

      11A      0.025817    12A      0.049891    13A      0.057696  
      14A      0.089556    15A      0.174708    16A      0.181426  
      17A      0.198291    18A      0.213206    19A      0.230011  
      20A      0.235558    21A      0.247195    22A      0.275169  
      23A      0.301479    24A      0.310630    25A      0.347487  
      26A      0.363985    27A      0.406578    28A      0.424581  
      29A      0.441911    30A      0.477601    31A      0.517588  
      32A      0.534289    33A      0.536847    34A      0.588147  
      35A      0.629693    36A      0.649690    37A      0.667848  
      38A      0.779391    39A      0.847306    40A      0.861081  
      41A      0.926933    42A      0.995200    43A      1.088489  
      44A      1.124623    45A      1.138439    46A      1.180819  
      47A      1.189303    48A      1.223507    49A      1.340232  
      50A      1.428818    51A      1.461231    52A      1.502311  
      53A      1.527498    54A      1.598648    55A      1.621826  
      56A      1.953367    57A      1.964862    58A      2.015453  
      59A      2.026416    60A      2.032180    61A      2.046304  
      62A      2.127760    63A      2.347266    64A      2.387810  
      65A      2.441772    66A      2.483423    67A      2.510226  
      68A      2.707565    69A      2.760340    70A      2.786583  
      71A      2.963354    72A      3.020074    73A      3.663887  
      74A      3.677044    75A      3.704705    76A      3.738411  
      77A      3.764916    78A      3.777225    79A      4.075287  
      80A      4.122021    81A      4.170550    82A      4.337504  

    Final Occupation by Irrep:
              A 
    DOCC [    10 ]

  @DF-RHF Final Energy:  -152.07182129487319

   => Energetics <=

    Nuclear Repulsion Energy =             34.6622296048276652
    One-Electron Energy =                -278.7600565922531359
    Two-Electron Energy =                  92.0260056925522605
    Total Energy =                       -152.0718212948731889

Computation Completed


Properties will be evaluated at   0.000000,   0.000000,   0.000000 [a0]

Properties computed using the SCF density matrix


 Multipole Moments:

 ------------------------------------------------------------------------------------
     Multipole            Electronic (a.u.)      Nuclear  (a.u.)        Total (a.u.)
 ------------------------------------------------------------------------------------

 L = 1.  Multiply by 2.5417464519 to convert [e a0] to [Debye]
 Dipole X            :         -0.0013364           -0.0000000           -0.0013364
 Dipole Y            :         -0.1976297            0.8057008            0.6080712
 Dipole Z            :         -0.0705123            1.4558992            1.3853869
 Magnitude           :                                                    1.5129604

 ------------------------------------------------------------------------------------

*** tstop() called on Lenovo-Y540-Zoha at Tue Sep 27 18:44:46 2022
Module time:
	user time   =        nan seconds =        nan minutes
	system time =        nan seconds =        nan minutes
	total time  =          1 seconds =       0.02 minutes
Total time:
	user time   =        nan seconds =        nan minutes
	system time =        nan seconds =        nan minutes
	total time  =       1105 seconds =      18.42 minutes

    Psi4 stopped on: Tuesday, 27 September 2022 06:44PM
    Psi4 wall time for execution: 0:00:01.03


  //>>>>>>>>>>>>>>>>>>>>>>>>>>>>>>>>>>>//
  //          ManyBody Results         //
  //<<<<<<<<<<<<<<<<<<<<<<<<<<<<<<<<<<<//


   ==> N-Body: Counterpoise Corrected (CP) energies <==

        n-Body     Total Energy            Interaction Energy                          N-body Contribution to Interaction Energy
                   [Eh]                    [Eh]                  [kcal/mol]            [Eh]                  [kcal/mol]
             1  N/A                         0.000000000000        0.000000000000        0.000000000000        0.000000000000
  FULL/RTN   2  N/A                        -0.006177380769       -3.876364955449       -0.006177380769       -3.876364955449

