
Scratch directory: C:\Users\64292\AppData\Local\Temp/

  //>>>>>>>>>>>>>>>>>>>>>>>>>>>>>>>>>>>>>//
  // ManyBody Setup: N-Body Levels [1, 2]//
  //<<<<<<<<<<<<<<<<<<<<<<<<<<<<<<<<<<<<<//

        Number of 1-body computations:     2
        Number of 2-body computations:     1

    -----------------------------------------------------------------------
          Psi4: An Open-Source Ab Initio Electronic Structure Package
                               Psi4 1.6.1 release

                         Git: Rev {HEAD} 5b9f6e3 


    D. G. A. Smith, L. A. Burns, A. C. Simmonett, R. M. Parrish,
    M. C. Schieber, R. Galvelis, P. Kraus, H. Kruse, R. Di Remigio,
    A. Alenaizan, A. M. James, S. Lehtola, J. P. Misiewicz, M. Scheurer,
    R. A. Shaw, J. B. Schriber, Y. Xie, Z. L. Glick, D. A. Sirianni,
    J. S. O'Brien, J. M. Waldrop, A. Kumar, E. G. Hohenstein,
    B. P. Pritchard, B. R. Brooks, H. F. Schaefer III, A. Yu. Sokolov,
    K. Patkowski, A. E. DePrince III, U. Bozkaya, R. A. King,
    F. A. Evangelista, J. M. Turney, T. D. Crawford, C. D. Sherrill,
    J. Chem. Phys. 152(18) 184108 (2020). https://doi.org/10.1063/5.0006002

                            Additional Code Authors
    E. T. Seidl, C. L. Janssen, E. F. Valeev, M. L. Leininger,
    J. F. Gonthier, R. M. Richard, H. R. McAlexander, M. Saitow, X. Wang,
    P. Verma, M. H. Lechner, and A. Jiang

             Previous Authors, Complete List of Code Contributors,
                       and Citations for Specific Modules
    https://github.com/psi4/psi4/blob/master/codemeta.json
    https://github.com/psi4/psi4/graphs/contributors
    http://psicode.org/psi4manual/master/introduction.html#citing-psifour

    -----------------------------------------------------------------------


    Psi4 started on: Tuesday, 27 September 2022 06:25PM

    Process ID: 10544
    Host:       Lenovo-Y540-Zoha
    PSIDATADIR: C:\Users\64292\Anaconda3\envs\qm-tools\lib\share\psi4
    Memory:     476.8 MiB
    Threads:    1
    
  ==> Input QCSchema <==

--------------------------------------------------------------------------
{'driver': 'energy',
 'extras': {'psiapi': True, 'wfn_qcvars_only': True},
 'id': None,
 'keywords': {'function_kwargs': {}},
 'model': {'basis': 'aug-cc-pvdz', 'method': 'scf'},
 'molecule': {'atom_labels': ['1', '2', '3', '5', '6', '7'],
              'atomic_numbers': [8, 1, 1, 8, 1, 1],
              'fix_com': True,
              'fix_orientation': True,
              'fragment_charges': [0.0, 0.0],
              'fragment_multiplicities': [1, 1],
              'fragments': [[0, 1, 2], [3, 4, 5]],
              'geometry': [3.6985726236876735e-17, -0.051183389255754774, -2.927077430585559, 3.6985726236876735e-17,
                           -0.051183389255754774, -1.0373513051277308, 3.6985726236876735e-17, 1.7781852282291912,
                           -3.4008656645034905, 3.6985726236876735e-17, -0.051183389255754774, 2.742100945787925,
                           -1.4172945940933717, -0.8694588046765648, 3.6869640085168385, 1.4172945940933703,
                           0.7670920261650542, 3.6869640085168394],
              'mass_numbers': [16, 1, 1, 16, 1, 1],
              'masses': [15.99491461957, 1.00782503223, 1.00782503223, 15.99491461957, 1.00782503223, 1.00782503223],
              'molecular_charge': 0.0,
              'molecular_multiplicity': 1,
              'name': 'H4O2',
              'provenance': {'creator': 'QCElemental',
                             'routine': 'qcelemental.molparse.from_string',
                             'version': 'v0.25.0'},
              'real': [False, False, False, True, True, True],
              'schema_name': 'qcschema_molecule',
              'schema_version': 2,
              'symbols': ['O', 'H', 'H', 'O', 'H', 'H'],
              'validated': True},
 'protocols': {'stdout': True},
 'provenance': {'creator': 'QCElemental', 'routine': 'qcelemental.models.results', 'version': 'v0.25.0'},
 'schema_name': 'qcschema_input',
 'schema_version': 1}
--------------------------------------------------------------------------

Scratch directory: C:\Users\64292\AppData\Local\Temp/

*** tstart() called on Lenovo-Y540-Zoha
*** at Tue Sep 27 18:42:30 2022

   => Loading Basis Set <=

    Name: AUG-CC-PVDZ
    Role: ORBITAL
    Keyword: BASIS
    atoms 1, 4     entry O          line   254 file C:\Users\64292\Anaconda3\envs\qm-tools\lib\share\psi4\basis\aug-cc-pvdz.gbs 
    atoms 2-3, 5-6 entry H          line    40 file C:\Users\64292\Anaconda3\envs\qm-tools\lib\share\psi4\basis\aug-cc-pvdz.gbs 


         ---------------------------------------------------------
                                   SCF
               by Justin Turney, Rob Parrish, Andy Simmonett
                          and Daniel G. A. Smith
                              RHF Reference
                        1 Threads,    476 MiB Core
         ---------------------------------------------------------

  ==> Geometry <==

    Molecular point group: c1
    Full point group: C1

    Geometry (in Bohr), charge = 0, multiplicity = 1:

       Center              X                  Y                   Z               Mass       
    ------------   -----------------  -----------------  -----------------  -----------------
      Gh(O)           0.000000000000    -0.051183389256    -2.927077430586    15.994914619570
      Gh(H)           0.000000000000    -0.051183389256    -1.037351305128     1.007825032230
      Gh(H)           0.000000000000     1.778185228229    -3.400865664503     1.007825032230
         O            0.000000000000    -0.051183389256     2.742100945788    15.994914619570
         H           -1.417294594093    -0.869458804677     3.686964008517     1.007825032230
         H            1.417294594093     0.767092026165     3.686964008517     1.007825032230

  Running in c1 symmetry.

  Rotational constants: A =      7.04690  B =      0.20100  C =      0.19789 [cm^-1]
  Rotational constants: A = 211260.82406  B =   6025.69501  C =   5932.68962 [MHz]
  Nuclear repulsion =    8.772355975749342

  Charge       = 0
  Multiplicity = 1
  Electrons    = 10
  Nalpha       = 5
  Nbeta        = 5

  ==> Algorithm <==

  SCF Algorithm Type is DF.
  DIIS enabled.
  MOM disabled.
  Fractional occupation disabled.
  Guess Type is SAD.
  Energy threshold   = 1.00e-06
  Density threshold  = 1.00e-06
  Integral threshold = 1.00e-12

  ==> Primary Basis <==

  Basis Set: AUG-CC-PVDZ
    Blend: AUG-CC-PVDZ
    Number of shells: 38
    Number of basis functions: 82
    Number of Cartesian functions: 86
    Spherical Harmonics?: true
    Max angular momentum: 2

   => Loading Basis Set <=

    Name: (AUG-CC-PVDZ AUX)
    Role: JKFIT
    Keyword: DF_BASIS_SCF
    atoms 1, 4     entry O          line   270 file C:\Users\64292\Anaconda3\envs\qm-tools\lib\share\psi4\basis\aug-cc-pvdz-jkfit.gbs 
    atoms 2-3, 5-6 entry H          line    70 file C:\Users\64292\Anaconda3\envs\qm-tools\lib\share\psi4\basis\aug-cc-pvdz-jkfit.gbs 

  ==> Integral Setup <==

  DFHelper Memory: AOs need 0.017 GiB; user supplied 0.349 GiB. Using in-core AOs.

  ==> MemDFJK: Density-Fitted J/K Matrices <==

    J tasked:                   Yes
    K tasked:                   Yes
    wK tasked:                   No
    OpenMP threads:               1
    Memory [MiB]:               357
    Algorithm:                 Core
    Schwarz Cutoff:           1E-12
    Mask sparsity (%):       0.0000
    Fitting Condition:        1E-10

   => Auxiliary Basis Set <=

  Basis Set: (AUG-CC-PVDZ AUX)
    Blend: AUG-CC-PVDZ-JKFIT
    Number of shells: 104
    Number of basis functions: 300
    Number of Cartesian functions: 342
    Spherical Harmonics?: true
    Max angular momentum: 3

  Minimum eigenvalue in the overlap matrix is 2.0480342723E-03.
  Reciprocal condition number of the overlap matrix is 2.7936850204E-04.
    Using symmetric orthogonalization.

  ==> Pre-Iterations <==

  SCF Guess: Superposition of Atomic Densities via on-the-fly atomic UHF (no occupation information).

   -------------------------
    Irrep   Nso     Nmo    
   -------------------------
     A         82      82 
   -------------------------
    Total      82      82
   -------------------------

  ==> Iterations <==

                           Total Energy        Delta E     RMS |[F,P]|

   @DF-RHF iter SAD:   -75.40236274965253   -7.54024e+01   0.00000e+00 
   @DF-RHF iter   1:   -75.94515039324241   -5.42788e-01   5.50963e-03 DIIS/ADIIS
   @DF-RHF iter   2:   -75.99634667898243   -5.11963e-02   3.73194e-03 DIIS/ADIIS
   @DF-RHF iter   3:   -76.02944046487397   -3.30938e-02   2.79102e-04 DIIS/ADIIS
   @DF-RHF iter   4:   -76.02991143316132   -4.70968e-04   6.67688e-05 DIIS
   @DF-RHF iter   5:   -76.02994405029077   -3.26171e-05   1.62969e-05 DIIS
   @DF-RHF iter   6:   -76.02994712661925   -3.07633e-06   3.50004e-06 DIIS
   @DF-RHF iter   7:   -76.02994728192098   -1.55302e-07   6.43803e-07 DIIS
  Energy and wave function converged.


  ==> Post-Iterations <==

    Orbital Energies [Eh]
    ---------------------

    Doubly Occupied:                                                      

       1A    -20.575803     2A     -1.325811     3A     -0.721155  
       4A     -0.548222     5A     -0.500635  

    Virtual:                                                              

       6A      0.032544     7A      0.054179     8A      0.056068  
       9A      0.081172    10A      0.165524    11A      0.172511  
      12A      0.181802    13A      0.197965    14A      0.212707  
      15A      0.224240    16A      0.240002    17A      0.253044  
      18A      0.316994    19A      0.325778    20A      0.370218  
      21A      0.402253    22A      0.437743    23A      0.453451  
      24A      0.465911    25A      0.504739    26A      0.526853  
      27A      0.534255    28A      0.547347    29A      0.569056  
      30A      0.621290    31A      0.652706    32A      0.661947  
      33A      0.711442    34A      0.862987    35A      0.880999  
      36A      0.943579    37A      0.955016    38A      1.133118  
      39A      1.147339    40A      1.181877    41A      1.207200  
      42A      1.225355    43A      1.285215    44A      1.337255  
      45A      1.392402    46A      1.406679    47A      1.433204  
      48A      1.485830    49A      1.566713    50A      1.580366  
      51A      1.795779    52A      1.998131    53A      2.050430  
      54A      2.057444    55A      2.148645    56A      2.325282  
      57A      2.367774    58A      2.410045    59A      2.464410  
      60A      2.486807    61A      2.539926    62A      2.630285  
      63A      2.738190    64A      2.847858    65A      2.937365  
      66A      3.431324    67A      3.700968    68A      3.719599  
      69A      3.848304    70A      3.911071    71A      4.086226  
      72A      4.146636    73A      4.192372    74A      4.913755  
      75A      4.959956    76A      5.002731    77A      5.181984  
      78A      5.489642    79A      5.686030    80A      6.461438  
      81A      6.892378    82A     33.571940  

    Final Occupation by Irrep:
              A 
    DOCC [     5 ]

  @DF-RHF Final Energy:   -76.02994728192098

   => Energetics <=

    Nuclear Repulsion Energy =              8.7723559757493419
    One-Electron Energy =                -122.2613153010393319
    Two-Electron Energy =                  37.4590120433690075
    Total Energy =                        -76.0299472819209825

Computation Completed


Properties will be evaluated at   0.000000,   0.000000,   0.000000 [a0]

Properties computed using the SCF density matrix


 Multipole Moments:

 ------------------------------------------------------------------------------------
     Multipole            Electronic (a.u.)      Nuclear  (a.u.)        Total (a.u.)
 ------------------------------------------------------------------------------------

 L = 1.  Multiply by 2.5417464519 to convert [e a0] to [Debye]
 Dipole X            :          0.0001042           -0.0000000            0.0001042
 Dipole Y            :          0.5115587           -0.5118339           -0.0002752
 Dipole Z            :        -28.6256118           29.3107356            0.6851238
 Magnitude           :                                                    0.6851239

 ------------------------------------------------------------------------------------

*** tstop() called on Lenovo-Y540-Zoha at Tue Sep 27 18:42:31 2022
Module time:
	user time   =        nan seconds =        nan minutes
	system time =        nan seconds =        nan minutes
	total time  =          1 seconds =       0.02 minutes
Total time:
	user time   =        nan seconds =        nan minutes
	system time =        nan seconds =        nan minutes
	total time  =        970 seconds =      16.17 minutes

    Psi4 stopped on: Tuesday, 27 September 2022 06:42PM
    Psi4 wall time for execution: 0:00:01.00


    -----------------------------------------------------------------------
          Psi4: An Open-Source Ab Initio Electronic Structure Package
                               Psi4 1.6.1 release

                         Git: Rev {HEAD} 5b9f6e3 


    D. G. A. Smith, L. A. Burns, A. C. Simmonett, R. M. Parrish,
    M. C. Schieber, R. Galvelis, P. Kraus, H. Kruse, R. Di Remigio,
    A. Alenaizan, A. M. James, S. Lehtola, J. P. Misiewicz, M. Scheurer,
    R. A. Shaw, J. B. Schriber, Y. Xie, Z. L. Glick, D. A. Sirianni,
    J. S. O'Brien, J. M. Waldrop, A. Kumar, E. G. Hohenstein,
    B. P. Pritchard, B. R. Brooks, H. F. Schaefer III, A. Yu. Sokolov,
    K. Patkowski, A. E. DePrince III, U. Bozkaya, R. A. King,
    F. A. Evangelista, J. M. Turney, T. D. Crawford, C. D. Sherrill,
    J. Chem. Phys. 152(18) 184108 (2020). https://doi.org/10.1063/5.0006002

                            Additional Code Authors
    E. T. Seidl, C. L. Janssen, E. F. Valeev, M. L. Leininger,
    J. F. Gonthier, R. M. Richard, H. R. McAlexander, M. Saitow, X. Wang,
    P. Verma, M. H. Lechner, and A. Jiang

             Previous Authors, Complete List of Code Contributors,
                       and Citations for Specific Modules
    https://github.com/psi4/psi4/blob/master/codemeta.json
    https://github.com/psi4/psi4/graphs/contributors
    http://psicode.org/psi4manual/master/introduction.html#citing-psifour

    -----------------------------------------------------------------------


    Psi4 started on: Tuesday, 27 September 2022 06:25PM

    Process ID: 10544
    Host:       Lenovo-Y540-Zoha
    PSIDATADIR: C:\Users\64292\Anaconda3\envs\qm-tools\lib\share\psi4
    Memory:     476.8 MiB
    Threads:    1
    
  ==> Input QCSchema <==

--------------------------------------------------------------------------
{'driver': 'energy',
 'extras': {'psiapi': True, 'wfn_qcvars_only': True},
 'id': None,
 'keywords': {'function_kwargs': {}},
 'model': {'basis': 'aug-cc-pvdz', 'method': 'scf'},
 'molecule': {'atom_labels': ['1', '2', '3', '5', '6', '7'],
              'atomic_numbers': [8, 1, 1, 8, 1, 1],
              'fix_com': True,
              'fix_orientation': True,
              'fragment_charges': [0.0, 0.0],
              'fragment_multiplicities': [1, 1],
              'fragments': [[0, 1, 2], [3, 4, 5]],
              'geometry': [3.6985726236876735e-17, -0.051183389255754774, -2.927077430585559, 3.6985726236876735e-17,
                           -0.051183389255754774, -1.0373513051277308, 3.6985726236876735e-17, 1.7781852282291912,
                           -3.4008656645034905, 3.6985726236876735e-17, -0.051183389255754774, 2.742100945787925,
                           -1.4172945940933717, -0.8694588046765648, 3.6869640085168385, 1.4172945940933703,
                           0.7670920261650542, 3.6869640085168394],
              'mass_numbers': [16, 1, 1, 16, 1, 1],
              'masses': [15.99491461957, 1.00782503223, 1.00782503223, 15.99491461957, 1.00782503223, 1.00782503223],
              'molecular_charge': 0.0,
              'molecular_multiplicity': 1,
              'name': 'H4O2',
              'provenance': {'creator': 'QCElemental',
                             'routine': 'qcelemental.molparse.from_string',
                             'version': 'v0.25.0'},
              'real': [True, True, True, False, False, False],
              'schema_name': 'qcschema_molecule',
              'schema_version': 2,
              'symbols': ['O', 'H', 'H', 'O', 'H', 'H'],
              'validated': True},
 'protocols': {'stdout': True},
 'provenance': {'creator': 'QCElemental', 'routine': 'qcelemental.models.results', 'version': 'v0.25.0'},
 'schema_name': 'qcschema_input',
 'schema_version': 1}
--------------------------------------------------------------------------

Scratch directory: C:\Users\64292\AppData\Local\Temp/

*** tstart() called on Lenovo-Y540-Zoha
*** at Tue Sep 27 18:42:31 2022

   => Loading Basis Set <=

    Name: AUG-CC-PVDZ
    Role: ORBITAL
    Keyword: BASIS
    atoms 1, 4     entry O          line   254 file C:\Users\64292\Anaconda3\envs\qm-tools\lib\share\psi4\basis\aug-cc-pvdz.gbs 
    atoms 2-3, 5-6 entry H          line    40 file C:\Users\64292\Anaconda3\envs\qm-tools\lib\share\psi4\basis\aug-cc-pvdz.gbs 


         ---------------------------------------------------------
                                   SCF
               by Justin Turney, Rob Parrish, Andy Simmonett
                          and Daniel G. A. Smith
                              RHF Reference
                        1 Threads,    476 MiB Core
         ---------------------------------------------------------

  ==> Geometry <==

    Molecular point group: c1
    Full point group: C1

    Geometry (in Bohr), charge = 0, multiplicity = 1:

       Center              X                  Y                   Z               Mass       
    ------------   -----------------  -----------------  -----------------  -----------------
         O            0.000000000000    -0.051183389256    -2.927077430586    15.994914619570
         H            0.000000000000    -0.051183389256    -1.037351305128     1.007825032230
         H            0.000000000000     1.778185228229    -3.400865664503     1.007825032230
      Gh(O)           0.000000000000    -0.051183389256     2.742100945788    15.994914619570
      Gh(H)          -1.417294594093    -0.869458804677     3.686964008517     1.007825032230
      Gh(H)           1.417294594093     0.767092026165     3.686964008517     1.007825032230

  Running in c1 symmetry.

  Rotational constants: A =      7.04690  B =      0.20100  C =      0.19789 [cm^-1]
  Rotational constants: A = 211260.82406  B =   6025.69501  C =   5932.68962 [MHz]
  Nuclear repulsion =    8.801420354575150

  Charge       = 0
  Multiplicity = 1
  Electrons    = 10
  Nalpha       = 5
  Nbeta        = 5

  ==> Algorithm <==

  SCF Algorithm Type is DF.
  DIIS enabled.
  MOM disabled.
  Fractional occupation disabled.
  Guess Type is SAD.
  Energy threshold   = 1.00e-06
  Density threshold  = 1.00e-06
  Integral threshold = 1.00e-12

  ==> Primary Basis <==

  Basis Set: AUG-CC-PVDZ
    Blend: AUG-CC-PVDZ
    Number of shells: 38
    Number of basis functions: 82
    Number of Cartesian functions: 86
    Spherical Harmonics?: true
    Max angular momentum: 2

   => Loading Basis Set <=

    Name: (AUG-CC-PVDZ AUX)
    Role: JKFIT
    Keyword: DF_BASIS_SCF
    atoms 1, 4     entry O          line   270 file C:\Users\64292\Anaconda3\envs\qm-tools\lib\share\psi4\basis\aug-cc-pvdz-jkfit.gbs 
    atoms 2-3, 5-6 entry H          line    70 file C:\Users\64292\Anaconda3\envs\qm-tools\lib\share\psi4\basis\aug-cc-pvdz-jkfit.gbs 

  ==> Integral Setup <==

  DFHelper Memory: AOs need 0.017 GiB; user supplied 0.349 GiB. Using in-core AOs.

  ==> MemDFJK: Density-Fitted J/K Matrices <==

    J tasked:                   Yes
    K tasked:                   Yes
    wK tasked:                   No
    OpenMP threads:               1
    Memory [MiB]:               357
    Algorithm:                 Core
    Schwarz Cutoff:           1E-12
    Mask sparsity (%):       0.0000
    Fitting Condition:        1E-10

   => Auxiliary Basis Set <=

  Basis Set: (AUG-CC-PVDZ AUX)
    Blend: AUG-CC-PVDZ-JKFIT
    Number of shells: 104
    Number of basis functions: 300
    Number of Cartesian functions: 342
    Spherical Harmonics?: true
    Max angular momentum: 3

  Minimum eigenvalue in the overlap matrix is 2.0480342723E-03.
  Reciprocal condition number of the overlap matrix is 2.7936850204E-04.
    Using symmetric orthogonalization.

  ==> Pre-Iterations <==

  SCF Guess: Superposition of Atomic Densities via on-the-fly atomic UHF (no occupation information).

   -------------------------
    Irrep   Nso     Nmo    
   -------------------------
     A         82      82 
   -------------------------
    Total      82      82
   -------------------------

  ==> Iterations <==

                           Total Energy        Delta E     RMS |[F,P]|

   @DF-RHF iter SAD:   -75.41487088859168   -7.54149e+01   0.00000e+00 
   @DF-RHF iter   1:   -75.94942140108441   -5.34551e-01   5.50614e-03 DIIS/ADIIS
   @DF-RHF iter   2:   -76.00130255095098   -5.18811e-02   3.77601e-03 DIIS/ADIIS
   @DF-RHF iter   3:   -76.03526052172312   -3.39580e-02   2.81144e-04 DIIS/ADIIS
   @DF-RHF iter   4:   -76.03571401313933   -4.53491e-04   6.60404e-05 DIIS
   @DF-RHF iter   5:   -76.03574418218967   -3.01691e-05   1.56395e-05 DIIS
   @DF-RHF iter   6:   -76.03574675718241   -2.57499e-06   3.09542e-06 DIIS
   @DF-RHF iter   7:   -76.03574686080228   -1.03620e-07   5.05561e-07 DIIS
  Energy and wave function converged.


  ==> Post-Iterations <==

    Orbital Energies [Eh]
    ---------------------

    Doubly Occupied:                                                      

       1A    -20.584241     2A     -1.335635     3A     -0.696489  
       4A     -0.577360     5A     -0.506067  

    Virtual:                                                              

       6A      0.024815     7A      0.050148     8A      0.058279  
       9A      0.079730    10A      0.134503    11A      0.149142  
      12A      0.183608    13A      0.192792    14A      0.220180  
      15A      0.227262    16A      0.227974    17A      0.269977  
      18A      0.328594    19A      0.358470    20A      0.368200  
      21A      0.391903    22A      0.399905    23A      0.419710  
      24A      0.420931    25A      0.472441    26A      0.484236  
      27A      0.495012    28A      0.520600    29A      0.549815  
      30A      0.579517    31A      0.616696    32A      0.649419  
      33A      0.745160    34A      0.850169    35A      0.913692  
      36A      0.969050    37A      1.048425    38A      1.109253  
      39A      1.152568    40A      1.175409    41A      1.181126  
      42A      1.201834    43A      1.279094    44A      1.297943  
      45A      1.302247    46A      1.331641    47A      1.381624  
      48A      1.439045    49A      1.499275    50A      1.574486  
      51A      1.734507    52A      1.985916    53A      1.995708  
      54A      2.058207    55A      2.084204    56A      2.343134  
      57A      2.369854    58A      2.381142    59A      2.394010  
      60A      2.444192    61A      2.472033    62A      2.592260  
      63A      2.718074    64A      2.934344    65A      2.988380  
      66A      3.422655    67A      3.676163    68A      3.705006  
      69A      3.732642    70A      3.950885    71A      3.970292  
      72A      4.052097    73A      4.289070    74A      4.909468  
      75A      4.936938    76A      5.061669    77A      5.324654  
      78A      5.358910    79A      5.594261    80A      6.368875  
      81A      6.807936    82A     33.528085  

    Final Occupation by Irrep:
              A 
    DOCC [     5 ]

  @DF-RHF Final Energy:   -76.03574686080228

   => Energetics <=

    Nuclear Repulsion Energy =              8.8014203545751499
    One-Electron Energy =                -122.2747286550554975
    Two-Electron Energy =                  37.4375614396780634
    Total Energy =                        -76.0357468608022771

Computation Completed


Properties will be evaluated at   0.000000,   0.000000,   0.000000 [a0]

Properties computed using the SCF density matrix


 Multipole Moments:

 ------------------------------------------------------------------------------------
     Multipole            Electronic (a.u.)      Nuclear  (a.u.)        Total (a.u.)
 ------------------------------------------------------------------------------------

 L = 1.  Multiply by 2.5417464519 to convert [e a0] to [Debye]
 Dipole X            :          0.0001083            0.0000000            0.0001083
 Dipole Y            :         -0.6855162            1.3175347            0.6320186
 Dipole Z            :         28.3438014          -27.8548364            0.4889650
 Magnitude           :                                                    0.7990834

 ------------------------------------------------------------------------------------

*** tstop() called on Lenovo-Y540-Zoha at Tue Sep 27 18:42:32 2022
Module time:
	user time   =        nan seconds =        nan minutes
	system time =        nan seconds =        nan minutes
	total time  =          1 seconds =       0.02 minutes
Total time:
	user time   =        nan seconds =        nan minutes
	system time =        nan seconds =        nan minutes
	total time  =        971 seconds =      16.18 minutes

    Psi4 stopped on: Tuesday, 27 September 2022 06:42PM
    Psi4 wall time for execution: 0:00:01.00


    -----------------------------------------------------------------------
          Psi4: An Open-Source Ab Initio Electronic Structure Package
                               Psi4 1.6.1 release

                         Git: Rev {HEAD} 5b9f6e3 


    D. G. A. Smith, L. A. Burns, A. C. Simmonett, R. M. Parrish,
    M. C. Schieber, R. Galvelis, P. Kraus, H. Kruse, R. Di Remigio,
    A. Alenaizan, A. M. James, S. Lehtola, J. P. Misiewicz, M. Scheurer,
    R. A. Shaw, J. B. Schriber, Y. Xie, Z. L. Glick, D. A. Sirianni,
    J. S. O'Brien, J. M. Waldrop, A. Kumar, E. G. Hohenstein,
    B. P. Pritchard, B. R. Brooks, H. F. Schaefer III, A. Yu. Sokolov,
    K. Patkowski, A. E. DePrince III, U. Bozkaya, R. A. King,
    F. A. Evangelista, J. M. Turney, T. D. Crawford, C. D. Sherrill,
    J. Chem. Phys. 152(18) 184108 (2020). https://doi.org/10.1063/5.0006002

                            Additional Code Authors
    E. T. Seidl, C. L. Janssen, E. F. Valeev, M. L. Leininger,
    J. F. Gonthier, R. M. Richard, H. R. McAlexander, M. Saitow, X. Wang,
    P. Verma, M. H. Lechner, and A. Jiang

             Previous Authors, Complete List of Code Contributors,
                       and Citations for Specific Modules
    https://github.com/psi4/psi4/blob/master/codemeta.json
    https://github.com/psi4/psi4/graphs/contributors
    http://psicode.org/psi4manual/master/introduction.html#citing-psifour

    -----------------------------------------------------------------------


    Psi4 started on: Tuesday, 27 September 2022 06:25PM

    Process ID: 10544
    Host:       Lenovo-Y540-Zoha
    PSIDATADIR: C:\Users\64292\Anaconda3\envs\qm-tools\lib\share\psi4
    Memory:     476.8 MiB
    Threads:    1
    
  ==> Input QCSchema <==

--------------------------------------------------------------------------
{'driver': 'energy',
 'extras': {'psiapi': True, 'wfn_qcvars_only': True},
 'id': None,
 'keywords': {'function_kwargs': {}},
 'model': {'basis': 'aug-cc-pvdz', 'method': 'scf'},
 'molecule': {'atom_labels': ['1', '2', '3', '5', '6', '7'],
              'atomic_numbers': [8, 1, 1, 8, 1, 1],
              'fix_com': True,
              'fix_orientation': True,
              'fragment_charges': [0.0, 0.0],
              'fragment_multiplicities': [1, 1],
              'fragments': [[0, 1, 2], [3, 4, 5]],
              'geometry': [3.6985726236876735e-17, -0.051183389255754774, -2.927077430585559, 3.6985726236876735e-17,
                           -0.051183389255754774, -1.0373513051277308, 3.6985726236876735e-17, 1.7781852282291912,
                           -3.4008656645034905, 3.6985726236876735e-17, -0.051183389255754774, 2.742100945787925,
                           -1.4172945940933717, -0.8694588046765648, 3.6869640085168385, 1.4172945940933703,
                           0.7670920261650542, 3.6869640085168394],
              'mass_numbers': [16, 1, 1, 16, 1, 1],
              'masses': [15.99491461957, 1.00782503223, 1.00782503223, 15.99491461957, 1.00782503223, 1.00782503223],
              'molecular_charge': 0.0,
              'molecular_multiplicity': 1,
              'name': 'H4O2',
              'provenance': {'creator': 'QCElemental',
                             'routine': 'qcelemental.molparse.from_string',
                             'version': 'v0.25.0'},
              'real': [True, True, True, True, True, True],
              'schema_name': 'qcschema_molecule',
              'schema_version': 2,
              'symbols': ['O', 'H', 'H', 'O', 'H', 'H'],
              'validated': True},
 'protocols': {'stdout': True},
 'provenance': {'creator': 'QCElemental', 'routine': 'qcelemental.models.results', 'version': 'v0.25.0'},
 'schema_name': 'qcschema_input',
 'schema_version': 1}
--------------------------------------------------------------------------

Scratch directory: C:\Users\64292\AppData\Local\Temp/

*** tstart() called on Lenovo-Y540-Zoha
*** at Tue Sep 27 18:42:32 2022

   => Loading Basis Set <=

    Name: AUG-CC-PVDZ
    Role: ORBITAL
    Keyword: BASIS
    atoms 1, 4     entry O          line   254 file C:\Users\64292\Anaconda3\envs\qm-tools\lib\share\psi4\basis\aug-cc-pvdz.gbs 
    atoms 2-3, 5-6 entry H          line    40 file C:\Users\64292\Anaconda3\envs\qm-tools\lib\share\psi4\basis\aug-cc-pvdz.gbs 


         ---------------------------------------------------------
                                   SCF
               by Justin Turney, Rob Parrish, Andy Simmonett
                          and Daniel G. A. Smith
                              RHF Reference
                        1 Threads,    476 MiB Core
         ---------------------------------------------------------

  ==> Geometry <==

    Molecular point group: c1
    Full point group: C1

    Geometry (in Bohr), charge = 0, multiplicity = 1:

       Center              X                  Y                   Z               Mass       
    ------------   -----------------  -----------------  -----------------  -----------------
         O            0.000000000000    -0.051183389256    -2.927077430586    15.994914619570
         H            0.000000000000    -0.051183389256    -1.037351305128     1.007825032230
         H            0.000000000000     1.778185228229    -3.400865664503     1.007825032230
         O            0.000000000000    -0.051183389256     2.742100945788    15.994914619570
         H           -1.417294594093    -0.869458804677     3.686964008517     1.007825032230
         H            1.417294594093     0.767092026165     3.686964008517     1.007825032230

  Running in c1 symmetry.

  Rotational constants: A =      7.04690  B =      0.20100  C =      0.19789 [cm^-1]
  Rotational constants: A = 211260.82406  B =   6025.69501  C =   5932.68962 [MHz]
  Nuclear repulsion =   35.242951447530814

  Charge       = 0
  Multiplicity = 1
  Electrons    = 20
  Nalpha       = 10
  Nbeta        = 10

  ==> Algorithm <==

  SCF Algorithm Type is DF.
  DIIS enabled.
  MOM disabled.
  Fractional occupation disabled.
  Guess Type is SAD.
  Energy threshold   = 1.00e-06
  Density threshold  = 1.00e-06
  Integral threshold = 1.00e-12

  ==> Primary Basis <==

  Basis Set: AUG-CC-PVDZ
    Blend: AUG-CC-PVDZ
    Number of shells: 38
    Number of basis functions: 82
    Number of Cartesian functions: 86
    Spherical Harmonics?: true
    Max angular momentum: 2

   => Loading Basis Set <=

    Name: (AUG-CC-PVDZ AUX)
    Role: JKFIT
    Keyword: DF_BASIS_SCF
    atoms 1, 4     entry O          line   270 file C:\Users\64292\Anaconda3\envs\qm-tools\lib\share\psi4\basis\aug-cc-pvdz-jkfit.gbs 
    atoms 2-3, 5-6 entry H          line    70 file C:\Users\64292\Anaconda3\envs\qm-tools\lib\share\psi4\basis\aug-cc-pvdz-jkfit.gbs 

  ==> Integral Setup <==

  DFHelper Memory: AOs need 0.017 GiB; user supplied 0.349 GiB. Using in-core AOs.

  ==> MemDFJK: Density-Fitted J/K Matrices <==

    J tasked:                   Yes
    K tasked:                   Yes
    wK tasked:                   No
    OpenMP threads:               1
    Memory [MiB]:               357
    Algorithm:                 Core
    Schwarz Cutoff:           1E-12
    Mask sparsity (%):       0.0000
    Fitting Condition:        1E-10

   => Auxiliary Basis Set <=

  Basis Set: (AUG-CC-PVDZ AUX)
    Blend: AUG-CC-PVDZ-JKFIT
    Number of shells: 104
    Number of basis functions: 300
    Number of Cartesian functions: 342
    Spherical Harmonics?: true
    Max angular momentum: 3

  Minimum eigenvalue in the overlap matrix is 2.0480342723E-03.
  Reciprocal condition number of the overlap matrix is 2.7936850204E-04.
    Using symmetric orthogonalization.

  ==> Pre-Iterations <==

  SCF Guess: Superposition of Atomic Densities via on-the-fly atomic UHF (no occupation information).

   -------------------------
    Irrep   Nso     Nmo    
   -------------------------
     A         82      82 
   -------------------------
    Total      82      82
   -------------------------

  ==> Iterations <==

                           Total Energy        Delta E     RMS |[F,P]|

   @DF-RHF iter SAD:  -150.88708682152429   -1.50887e+02   0.00000e+00 
   @DF-RHF iter   1:  -151.91318233167661   -1.02610e+00   7.51542e-03 DIIS/ADIIS
   @DF-RHF iter   2:  -152.01323220259610   -1.00050e-01   4.93901e-03 DIIS/ADIIS
   @DF-RHF iter   3:  -152.07095500584683   -5.77228e-02   4.12629e-04 DIIS/ADIIS
   @DF-RHF iter   4:  -152.07192506761388   -9.70062e-04   9.10628e-05 DIIS
   @DF-RHF iter   5:  -152.07198132929378   -5.62617e-05   3.01625e-05 DIIS
   @DF-RHF iter   6:  -152.07198703304493   -5.70375e-06   1.31269e-05 DIIS
   @DF-RHF iter   7:  -152.07198796362596   -9.30581e-07   2.52793e-06 DIIS
   @DF-RHF iter   8:  -152.07198803135682   -6.77309e-08   4.64522e-07 DIIS
  Energy and wave function converged.


  ==> Post-Iterations <==

    Orbital Energies [Eh]
    ---------------------

    Doubly Occupied:                                                      

       1A    -20.601086     2A    -20.549769     3A     -1.353630  
       4A     -1.303899     5A     -0.746983     6A     -0.671994  
       7A     -0.583957     8A     -0.539309     9A     -0.527524  
      10A     -0.474570  

    Virtual:                                                              

      11A      0.025560    12A      0.050334    13A      0.057531  
      14A      0.089031    15A      0.174555    16A      0.181794  
      17A      0.201550    18A      0.212772    19A      0.226569  
      20A      0.236701    21A      0.247355    22A      0.280949  
      23A      0.303023    24A      0.311806    25A      0.346569  
      26A      0.361377    27A      0.405612    28A      0.425494  
      29A      0.449031    30A      0.490656    31A      0.516821  
      32A      0.534498    33A      0.541460    34A      0.593455  
      35A      0.629169    36A      0.646860    37A      0.669248  
      38A      0.779472    39A      0.840039    40A      0.860637  
      41A      0.933349    42A      0.995929    43A      1.110846  
      44A      1.122789    45A      1.139311    46A      1.185278  
      47A      1.197721    48A      1.223846    49A      1.351034  
      50A      1.428095    51A      1.463896    52A      1.505768  
      53A      1.533113    54A      1.610284    55A      1.631403  
      56A      1.943276    57A      1.981384    58A      2.013494  
      59A      2.030725    60A      2.041012    61A      2.046312  
      62A      2.145561    63A      2.363671    64A      2.399870  
      65A      2.446349    66A      2.491255    67A      2.516230  
      68A      2.726168    69A      2.773577    70A      2.793623  
      71A      2.979421    72A      3.024642    73A      3.674488  
      74A      3.681447    75A      3.706824    76A      3.741077  
      77A      3.769008    78A      3.802772    79A      4.085111  
      80A      4.122437    81A      4.169122    82A      4.356704  

    Final Occupation by Irrep:
              A 
    DOCC [    10 ]

  @DF-RHF Final Energy:  -152.07198803135682

   => Energetics <=

    Nuclear Repulsion Energy =             35.2429514475308139
    One-Electron Energy =                -279.9244188547283443
    Two-Electron Energy =                  92.6094793758407206
    Total Energy =                       -152.0719880313568240

Computation Completed


Properties will be evaluated at   0.000000,   0.000000,   0.000000 [a0]

Properties computed using the SCF density matrix


 Multipole Moments:

 ------------------------------------------------------------------------------------
     Multipole            Electronic (a.u.)      Nuclear  (a.u.)        Total (a.u.)
 ------------------------------------------------------------------------------------

 L = 1.  Multiply by 2.5417464519 to convert [e a0] to [Debye]
 Dipole X            :         -0.0012748           -0.0000000           -0.0012748
 Dipole Y            :         -0.1991360            0.8057008            0.6065648
 Dipole Z            :         -0.0426557            1.4558992            1.4132435
 Magnitude           :                                                    1.5379141

 ------------------------------------------------------------------------------------

*** tstop() called on Lenovo-Y540-Zoha at Tue Sep 27 18:42:33 2022
Module time:
	user time   =        nan seconds =        nan minutes
	system time =        nan seconds =        nan minutes
	total time  =          1 seconds =       0.02 minutes
Total time:
	user time   =        nan seconds =        nan minutes
	system time =        nan seconds =        nan minutes
	total time  =        972 seconds =      16.20 minutes

    Psi4 stopped on: Tuesday, 27 September 2022 06:42PM
    Psi4 wall time for execution: 0:00:01.03


  //>>>>>>>>>>>>>>>>>>>>>>>>>>>>>>>>>>>//
  //          ManyBody Results         //
  //<<<<<<<<<<<<<<<<<<<<<<<<<<<<<<<<<<<//


   ==> N-Body: Counterpoise Corrected (CP) energies <==

        n-Body     Total Energy            Interaction Energy                          N-body Contribution to Interaction Energy
                   [Eh]                    [Eh]                  [kcal/mol]            [Eh]                  [kcal/mol]
             1  N/A                         0.000000000000        0.000000000000        0.000000000000        0.000000000000
  FULL/RTN   2  N/A                        -0.006293888634       -3.949474744462       -0.006293888634       -3.949474744462

