
Scratch directory: C:\Users\64292\AppData\Local\Temp/

  //>>>>>>>>>>>>>>>>>>>>>>>>>>>>>>>>>>>>>//
  // ManyBody Setup: N-Body Levels [1, 2]//
  //<<<<<<<<<<<<<<<<<<<<<<<<<<<<<<<<<<<<<//

        Number of 1-body computations:     2
        Number of 2-body computations:     1

    -----------------------------------------------------------------------
          Psi4: An Open-Source Ab Initio Electronic Structure Package
                               Psi4 1.6.1 release

                         Git: Rev {HEAD} 5b9f6e3 


    D. G. A. Smith, L. A. Burns, A. C. Simmonett, R. M. Parrish,
    M. C. Schieber, R. Galvelis, P. Kraus, H. Kruse, R. Di Remigio,
    A. Alenaizan, A. M. James, S. Lehtola, J. P. Misiewicz, M. Scheurer,
    R. A. Shaw, J. B. Schriber, Y. Xie, Z. L. Glick, D. A. Sirianni,
    J. S. O'Brien, J. M. Waldrop, A. Kumar, E. G. Hohenstein,
    B. P. Pritchard, B. R. Brooks, H. F. Schaefer III, A. Yu. Sokolov,
    K. Patkowski, A. E. DePrince III, U. Bozkaya, R. A. King,
    F. A. Evangelista, J. M. Turney, T. D. Crawford, C. D. Sherrill,
    J. Chem. Phys. 152(18) 184108 (2020). https://doi.org/10.1063/5.0006002

                            Additional Code Authors
    E. T. Seidl, C. L. Janssen, E. F. Valeev, M. L. Leininger,
    J. F. Gonthier, R. M. Richard, H. R. McAlexander, M. Saitow, X. Wang,
    P. Verma, M. H. Lechner, and A. Jiang

             Previous Authors, Complete List of Code Contributors,
                       and Citations for Specific Modules
    https://github.com/psi4/psi4/blob/master/codemeta.json
    https://github.com/psi4/psi4/graphs/contributors
    http://psicode.org/psi4manual/master/introduction.html#citing-psifour

    -----------------------------------------------------------------------


    Psi4 started on: Tuesday, 27 September 2022 06:25PM

    Process ID: 10544
    Host:       Lenovo-Y540-Zoha
    PSIDATADIR: C:\Users\64292\Anaconda3\envs\qm-tools\lib\share\psi4
    Memory:     476.8 MiB
    Threads:    1
    
  ==> Input QCSchema <==

--------------------------------------------------------------------------
{'driver': 'energy',
 'extras': {'psiapi': True, 'wfn_qcvars_only': True},
 'id': None,
 'keywords': {'function_kwargs': {}},
 'model': {'basis': 'aug-cc-pvdz', 'method': 'scf'},
 'molecule': {'atom_labels': ['1', '2', '3', '5', '6', '7'],
              'atomic_numbers': [8, 1, 1, 8, 1, 1],
              'fix_com': True,
              'fix_orientation': True,
              'fragment_charges': [0.0, 0.0],
              'fragment_multiplicities': [1, 1],
              'fragments': [[0, 1, 2], [3, 4, 5]],
              'geometry': [1.2328575412292244e-17, -0.051183389255754774, -3.2105363494042334, 1.2328575412292244e-17,
                           -0.051183389255754774, -1.320810223946406, 1.2328575412292244e-17, 1.7781852282291912,
                           -3.684324583322165, 1.2328575412292244e-17, -0.051183389255754774, 3.0255598646065995,
                           -0.8182754154208096, 1.3661112048376154, 3.970422927335512, 0.8182754154208092,
                           -1.4684779833491264, 3.970422927335511],
              'mass_numbers': [16, 1, 1, 16, 1, 1],
              'masses': [15.99491461957, 1.00782503223, 1.00782503223, 15.99491461957, 1.00782503223, 1.00782503223],
              'molecular_charge': 0.0,
              'molecular_multiplicity': 1,
              'name': 'H4O2',
              'provenance': {'creator': 'QCElemental',
                             'routine': 'qcelemental.molparse.from_string',
                             'version': 'v0.25.0'},
              'real': [False, False, False, True, True, True],
              'schema_name': 'qcschema_molecule',
              'schema_version': 2,
              'symbols': ['O', 'H', 'H', 'O', 'H', 'H'],
              'validated': True},
 'protocols': {'stdout': True},
 'provenance': {'creator': 'QCElemental', 'routine': 'qcelemental.models.results', 'version': 'v0.25.0'},
 'schema_name': 'qcschema_input',
 'schema_version': 1}
--------------------------------------------------------------------------

Scratch directory: C:\Users\64292\AppData\Local\Temp/

*** tstart() called on Lenovo-Y540-Zoha
*** at Tue Sep 27 18:46:34 2022

   => Loading Basis Set <=

    Name: AUG-CC-PVDZ
    Role: ORBITAL
    Keyword: BASIS
    atoms 1, 4     entry O          line   254 file C:\Users\64292\Anaconda3\envs\qm-tools\lib\share\psi4\basis\aug-cc-pvdz.gbs 
    atoms 2-3, 5-6 entry H          line    40 file C:\Users\64292\Anaconda3\envs\qm-tools\lib\share\psi4\basis\aug-cc-pvdz.gbs 


         ---------------------------------------------------------
                                   SCF
               by Justin Turney, Rob Parrish, Andy Simmonett
                          and Daniel G. A. Smith
                              RHF Reference
                        1 Threads,    476 MiB Core
         ---------------------------------------------------------

  ==> Geometry <==

    Molecular point group: c1
    Full point group: C1

    Geometry (in Bohr), charge = 0, multiplicity = 1:

       Center              X                  Y                   Z               Mass       
    ------------   -----------------  -----------------  -----------------  -----------------
      Gh(O)           0.000000000000    -0.051183389256    -3.210536349404    15.994914619570
      Gh(H)           0.000000000000    -0.051183389256    -1.320810223946     1.007825032230
      Gh(H)           0.000000000000     1.778185228229    -3.684324583322     1.007825032230
         O            0.000000000000    -0.051183389256     3.025559864607    15.994914619570
         H           -0.818275415421     1.366111204838     3.970422927336     1.007825032230
         H            0.818275415421    -1.468477983349     3.970422927336     1.007825032230

  Running in c1 symmetry.

  Rotational constants: A =      7.04454  B =      0.16761  C =      0.16419 [cm^-1]
  Rotational constants: A = 211190.13719  B =   5024.87641  C =   4922.29100 [MHz]
  Nuclear repulsion =    8.772355975749345

  Charge       = 0
  Multiplicity = 1
  Electrons    = 10
  Nalpha       = 5
  Nbeta        = 5

  ==> Algorithm <==

  SCF Algorithm Type is DF.
  DIIS enabled.
  MOM disabled.
  Fractional occupation disabled.
  Guess Type is SAD.
  Energy threshold   = 1.00e-06
  Density threshold  = 1.00e-06
  Integral threshold = 1.00e-12

  ==> Primary Basis <==

  Basis Set: AUG-CC-PVDZ
    Blend: AUG-CC-PVDZ
    Number of shells: 38
    Number of basis functions: 82
    Number of Cartesian functions: 86
    Spherical Harmonics?: true
    Max angular momentum: 2

   => Loading Basis Set <=

    Name: (AUG-CC-PVDZ AUX)
    Role: JKFIT
    Keyword: DF_BASIS_SCF
    atoms 1, 4     entry O          line   270 file C:\Users\64292\Anaconda3\envs\qm-tools\lib\share\psi4\basis\aug-cc-pvdz-jkfit.gbs 
    atoms 2-3, 5-6 entry H          line    70 file C:\Users\64292\Anaconda3\envs\qm-tools\lib\share\psi4\basis\aug-cc-pvdz-jkfit.gbs 

  ==> Integral Setup <==

  DFHelper Memory: AOs need 0.017 GiB; user supplied 0.349 GiB. Using in-core AOs.

  ==> MemDFJK: Density-Fitted J/K Matrices <==

    J tasked:                   Yes
    K tasked:                   Yes
    wK tasked:                   No
    OpenMP threads:               1
    Memory [MiB]:               357
    Algorithm:                 Core
    Schwarz Cutoff:           1E-12
    Mask sparsity (%):       0.0000
    Fitting Condition:        1E-10

   => Auxiliary Basis Set <=

  Basis Set: (AUG-CC-PVDZ AUX)
    Blend: AUG-CC-PVDZ-JKFIT
    Number of shells: 104
    Number of basis functions: 300
    Number of Cartesian functions: 342
    Spherical Harmonics?: true
    Max angular momentum: 3

  Minimum eigenvalue in the overlap matrix is 2.1441707314E-03.
  Reciprocal condition number of the overlap matrix is 3.0820276201E-04.
    Using symmetric orthogonalization.

  ==> Pre-Iterations <==

  SCF Guess: Superposition of Atomic Densities via on-the-fly atomic UHF (no occupation information).

   -------------------------
    Irrep   Nso     Nmo    
   -------------------------
     A         82      82 
   -------------------------
    Total      82      82
   -------------------------

  ==> Iterations <==

                           Total Energy        Delta E     RMS |[F,P]|

   @DF-RHF iter SAD:   -75.40236287011530   -7.54024e+01   0.00000e+00 
   @DF-RHF iter   1:   -75.94508167322533   -5.42719e-01   5.50776e-03 DIIS/ADIIS
   @DF-RHF iter   2:   -75.99626042355828   -5.11788e-02   3.72927e-03 DIIS/ADIIS
   @DF-RHF iter   3:   -76.02934836629164   -3.30879e-02   2.79189e-04 DIIS/ADIIS
   @DF-RHF iter   4:   -76.02981939944357   -4.71033e-04   6.67444e-05 DIIS
   @DF-RHF iter   5:   -76.02985199063086   -3.25912e-05   1.62921e-05 DIIS
   @DF-RHF iter   6:   -76.02985506393784   -3.07331e-06   3.49530e-06 DIIS
   @DF-RHF iter   7:   -76.02985521871990   -1.54782e-07   6.41565e-07 DIIS
  Energy and wave function converged.


  ==> Post-Iterations <==

    Orbital Energies [Eh]
    ---------------------

    Doubly Occupied:                                                      

       1A    -20.575760     2A     -1.325850     3A     -0.721206  
       4A     -0.548254     5A     -0.500714  

    Virtual:                                                              

       6A      0.032710     7A      0.052554     8A      0.055943  
       9A      0.083528    10A      0.158906    11A      0.170517  
      12A      0.181363    13A      0.197713    14A      0.214489  
      15A      0.221465    16A      0.238464    17A      0.250728  
      18A      0.307790    19A      0.328907    20A      0.372108  
      21A      0.403149    22A      0.437872    23A      0.451800  
      24A      0.456662    25A      0.482232    26A      0.513285  
      27A      0.527307    28A      0.544505    29A      0.566549  
      30A      0.613053    31A      0.640080    32A      0.660270  
      33A      0.706592    34A      0.867990    35A      0.877198  
      36A      0.921977    37A      0.931411    38A      1.106826  
      39A      1.140681    40A      1.146510    41A      1.204301  
      42A      1.236617    43A      1.283130    44A      1.334308  
      45A      1.358116    46A      1.391755    47A      1.420173  
      48A      1.452151    49A      1.524476    50A      1.567901  
      51A      1.869037    52A      1.987795    53A      2.045408  
      54A      2.048425    55A      2.057165    56A      2.277008  
      57A      2.368956    58A      2.412628    59A      2.438840  
      60A      2.462159    61A      2.525436    62A      2.567925  
      63A      2.684083    64A      2.803958    65A      2.910517  
      66A      3.419994    67A      3.680837    68A      3.700863  
      69A      3.789734    70A      3.906630    71A      4.073726  
      72A      4.142763    73A      4.182593    74A      4.908975  
      75A      4.954905    76A      4.990489    77A      5.170229  
      78A      5.479885    79A      5.638538    80A      6.399215  
      81A      6.838108    82A     33.566379  

    Final Occupation by Irrep:
              A 
    DOCC [     5 ]

  @DF-RHF Final Energy:   -76.02985521871990

   => Energetics <=

    Nuclear Repulsion Energy =              8.7723559757493454
    One-Electron Energy =                -122.2608184164532048
    Two-Electron Energy =                  37.4586072219839537
    Total Energy =                        -76.0298552187199022

Computation Completed


Properties will be evaluated at   0.000000,   0.000000,   0.000000 [a0]

Properties computed using the SCF density matrix


 Multipole Moments:

 ------------------------------------------------------------------------------------
     Multipole            Electronic (a.u.)      Nuclear  (a.u.)        Total (a.u.)
 ------------------------------------------------------------------------------------

 L = 1.  Multiply by 2.5417464519 to convert [e a0] to [Debye]
 Dipole X            :         -0.0001031           -0.0000000           -0.0001031
 Dipole Y            :          0.5116755           -0.5118339           -0.0001584
 Dipole Z            :        -31.4585158           32.1453248            0.6868089
 Magnitude           :                                                    0.6868090

 ------------------------------------------------------------------------------------

*** tstop() called on Lenovo-Y540-Zoha at Tue Sep 27 18:46:35 2022
Module time:
	user time   =        nan seconds =        nan minutes
	system time =        nan seconds =        nan minutes
	total time  =          1 seconds =       0.02 minutes
Total time:
	user time   =        nan seconds =        nan minutes
	system time =        nan seconds =        nan minutes
	total time  =       1214 seconds =      20.23 minutes

    Psi4 stopped on: Tuesday, 27 September 2022 06:46PM
    Psi4 wall time for execution: 0:00:01.09


    -----------------------------------------------------------------------
          Psi4: An Open-Source Ab Initio Electronic Structure Package
                               Psi4 1.6.1 release

                         Git: Rev {HEAD} 5b9f6e3 


    D. G. A. Smith, L. A. Burns, A. C. Simmonett, R. M. Parrish,
    M. C. Schieber, R. Galvelis, P. Kraus, H. Kruse, R. Di Remigio,
    A. Alenaizan, A. M. James, S. Lehtola, J. P. Misiewicz, M. Scheurer,
    R. A. Shaw, J. B. Schriber, Y. Xie, Z. L. Glick, D. A. Sirianni,
    J. S. O'Brien, J. M. Waldrop, A. Kumar, E. G. Hohenstein,
    B. P. Pritchard, B. R. Brooks, H. F. Schaefer III, A. Yu. Sokolov,
    K. Patkowski, A. E. DePrince III, U. Bozkaya, R. A. King,
    F. A. Evangelista, J. M. Turney, T. D. Crawford, C. D. Sherrill,
    J. Chem. Phys. 152(18) 184108 (2020). https://doi.org/10.1063/5.0006002

                            Additional Code Authors
    E. T. Seidl, C. L. Janssen, E. F. Valeev, M. L. Leininger,
    J. F. Gonthier, R. M. Richard, H. R. McAlexander, M. Saitow, X. Wang,
    P. Verma, M. H. Lechner, and A. Jiang

             Previous Authors, Complete List of Code Contributors,
                       and Citations for Specific Modules
    https://github.com/psi4/psi4/blob/master/codemeta.json
    https://github.com/psi4/psi4/graphs/contributors
    http://psicode.org/psi4manual/master/introduction.html#citing-psifour

    -----------------------------------------------------------------------


    Psi4 started on: Tuesday, 27 September 2022 06:25PM

    Process ID: 10544
    Host:       Lenovo-Y540-Zoha
    PSIDATADIR: C:\Users\64292\Anaconda3\envs\qm-tools\lib\share\psi4
    Memory:     476.8 MiB
    Threads:    1
    
  ==> Input QCSchema <==

--------------------------------------------------------------------------
{'driver': 'energy',
 'extras': {'psiapi': True, 'wfn_qcvars_only': True},
 'id': None,
 'keywords': {'function_kwargs': {}},
 'model': {'basis': 'aug-cc-pvdz', 'method': 'scf'},
 'molecule': {'atom_labels': ['1', '2', '3', '5', '6', '7'],
              'atomic_numbers': [8, 1, 1, 8, 1, 1],
              'fix_com': True,
              'fix_orientation': True,
              'fragment_charges': [0.0, 0.0],
              'fragment_multiplicities': [1, 1],
              'fragments': [[0, 1, 2], [3, 4, 5]],
              'geometry': [1.2328575412292244e-17, -0.051183389255754774, -3.2105363494042334, 1.2328575412292244e-17,
                           -0.051183389255754774, -1.320810223946406, 1.2328575412292244e-17, 1.7781852282291912,
                           -3.684324583322165, 1.2328575412292244e-17, -0.051183389255754774, 3.0255598646065995,
                           -0.8182754154208096, 1.3661112048376154, 3.970422927335512, 0.8182754154208092,
                           -1.4684779833491264, 3.970422927335511],
              'mass_numbers': [16, 1, 1, 16, 1, 1],
              'masses': [15.99491461957, 1.00782503223, 1.00782503223, 15.99491461957, 1.00782503223, 1.00782503223],
              'molecular_charge': 0.0,
              'molecular_multiplicity': 1,
              'name': 'H4O2',
              'provenance': {'creator': 'QCElemental',
                             'routine': 'qcelemental.molparse.from_string',
                             'version': 'v0.25.0'},
              'real': [True, True, True, False, False, False],
              'schema_name': 'qcschema_molecule',
              'schema_version': 2,
              'symbols': ['O', 'H', 'H', 'O', 'H', 'H'],
              'validated': True},
 'protocols': {'stdout': True},
 'provenance': {'creator': 'QCElemental', 'routine': 'qcelemental.models.results', 'version': 'v0.25.0'},
 'schema_name': 'qcschema_input',
 'schema_version': 1}
--------------------------------------------------------------------------

Scratch directory: C:\Users\64292\AppData\Local\Temp/

*** tstart() called on Lenovo-Y540-Zoha
*** at Tue Sep 27 18:46:35 2022

   => Loading Basis Set <=

    Name: AUG-CC-PVDZ
    Role: ORBITAL
    Keyword: BASIS
    atoms 1, 4     entry O          line   254 file C:\Users\64292\Anaconda3\envs\qm-tools\lib\share\psi4\basis\aug-cc-pvdz.gbs 
    atoms 2-3, 5-6 entry H          line    40 file C:\Users\64292\Anaconda3\envs\qm-tools\lib\share\psi4\basis\aug-cc-pvdz.gbs 


         ---------------------------------------------------------
                                   SCF
               by Justin Turney, Rob Parrish, Andy Simmonett
                          and Daniel G. A. Smith
                              RHF Reference
                        1 Threads,    476 MiB Core
         ---------------------------------------------------------

  ==> Geometry <==

    Molecular point group: c1
    Full point group: C1

    Geometry (in Bohr), charge = 0, multiplicity = 1:

       Center              X                  Y                   Z               Mass       
    ------------   -----------------  -----------------  -----------------  -----------------
         O            0.000000000000    -0.051183389256    -3.210536349404    15.994914619570
         H            0.000000000000    -0.051183389256    -1.320810223946     1.007825032230
         H            0.000000000000     1.778185228229    -3.684324583322     1.007825032230
      Gh(O)           0.000000000000    -0.051183389256     3.025559864607    15.994914619570
      Gh(H)          -0.818275415421     1.366111204838     3.970422927336     1.007825032230
      Gh(H)           0.818275415421    -1.468477983349     3.970422927336     1.007825032230

  Running in c1 symmetry.

  Rotational constants: A =      7.04454  B =      0.16761  C =      0.16419 [cm^-1]
  Rotational constants: A = 211190.13719  B =   5024.87641  C =   4922.29100 [MHz]
  Nuclear repulsion =    8.801420354575152

  Charge       = 0
  Multiplicity = 1
  Electrons    = 10
  Nalpha       = 5
  Nbeta        = 5

  ==> Algorithm <==

  SCF Algorithm Type is DF.
  DIIS enabled.
  MOM disabled.
  Fractional occupation disabled.
  Guess Type is SAD.
  Energy threshold   = 1.00e-06
  Density threshold  = 1.00e-06
  Integral threshold = 1.00e-12

  ==> Primary Basis <==

  Basis Set: AUG-CC-PVDZ
    Blend: AUG-CC-PVDZ
    Number of shells: 38
    Number of basis functions: 82
    Number of Cartesian functions: 86
    Spherical Harmonics?: true
    Max angular momentum: 2

   => Loading Basis Set <=

    Name: (AUG-CC-PVDZ AUX)
    Role: JKFIT
    Keyword: DF_BASIS_SCF
    atoms 1, 4     entry O          line   270 file C:\Users\64292\Anaconda3\envs\qm-tools\lib\share\psi4\basis\aug-cc-pvdz-jkfit.gbs 
    atoms 2-3, 5-6 entry H          line    70 file C:\Users\64292\Anaconda3\envs\qm-tools\lib\share\psi4\basis\aug-cc-pvdz-jkfit.gbs 

  ==> Integral Setup <==

  DFHelper Memory: AOs need 0.017 GiB; user supplied 0.349 GiB. Using in-core AOs.

  ==> MemDFJK: Density-Fitted J/K Matrices <==

    J tasked:                   Yes
    K tasked:                   Yes
    wK tasked:                   No
    OpenMP threads:               1
    Memory [MiB]:               357
    Algorithm:                 Core
    Schwarz Cutoff:           1E-12
    Mask sparsity (%):       0.0000
    Fitting Condition:        1E-10

   => Auxiliary Basis Set <=

  Basis Set: (AUG-CC-PVDZ AUX)
    Blend: AUG-CC-PVDZ-JKFIT
    Number of shells: 104
    Number of basis functions: 300
    Number of Cartesian functions: 342
    Spherical Harmonics?: true
    Max angular momentum: 3

  Minimum eigenvalue in the overlap matrix is 2.1441707314E-03.
  Reciprocal condition number of the overlap matrix is 3.0820276201E-04.
    Using symmetric orthogonalization.

  ==> Pre-Iterations <==

  SCF Guess: Superposition of Atomic Densities via on-the-fly atomic UHF (no occupation information).

   -------------------------
    Irrep   Nso     Nmo    
   -------------------------
     A         82      82 
   -------------------------
    Total      82      82
   -------------------------

  ==> Iterations <==

                           Total Energy        Delta E     RMS |[F,P]|

   @DF-RHF iter SAD:   -75.41487091116062   -7.54149e+01   0.00000e+00 
   @DF-RHF iter   1:   -75.94941063933223   -5.34540e-01   5.50517e-03 DIIS/ADIIS
   @DF-RHF iter   2:   -76.00128705819429   -5.18764e-02   3.77431e-03 DIIS/ADIIS
   @DF-RHF iter   3:   -76.03523815732473   -3.39511e-02   2.81178e-04 DIIS/ADIIS
   @DF-RHF iter   4:   -76.03569170046754   -4.53543e-04   6.60356e-05 DIIS
   @DF-RHF iter   5:   -76.03572185421720   -3.01537e-05   1.56288e-05 DIIS
   @DF-RHF iter   6:   -76.03572442442429   -2.57021e-06   3.09091e-06 DIIS
   @DF-RHF iter   7:   -76.03572452773116   -1.03307e-07   5.04560e-07 DIIS
  Energy and wave function converged.


  ==> Post-Iterations <==

    Orbital Energies [Eh]
    ---------------------

    Doubly Occupied:                                                      

       1A    -20.584249     2A     -1.335644     3A     -0.696506  
       4A     -0.577381     5A     -0.506079  

    Virtual:                                                              

       6A      0.024518     7A      0.048831     8A      0.058568  
       9A      0.080725    10A      0.135802    11A      0.144938  
      12A      0.177781    13A      0.192485    14A      0.217728  
      15A      0.223541    16A      0.228400    17A      0.265899  
      18A      0.318909    19A      0.352248    20A      0.370695  
      21A      0.398805    22A      0.407802    23A      0.413595  
      24A      0.426829    25A      0.461234    26A      0.472261  
      27A      0.491128    28A      0.506027    29A      0.536469  
      30A      0.578004    31A      0.617882    32A      0.648882  
      33A      0.748335    34A      0.818667    35A      0.899741  
      36A      0.945698    37A      1.024273    38A      1.105952  
      39A      1.140869    40A      1.164227    41A      1.195870  
      42A      1.204966    43A      1.274534    44A      1.292355  
      45A      1.305195    46A      1.334841    47A      1.338858  
      48A      1.417215    49A      1.496343    50A      1.535662  
      51A      1.693959    52A      1.988561    53A      1.991854  
      54A      2.054963    55A      2.084849    56A      2.315629  
      57A      2.361621    58A      2.381206    59A      2.390122  
      60A      2.419918    61A      2.435234    62A      2.597238  
      63A      2.735199    64A      2.842445    65A      2.983830  
      66A      3.381378    67A      3.674245    68A      3.703071  
      69A      3.717758    70A      3.910544    71A      3.941027  
      72A      4.037978    73A      4.256462    74A      4.874233  
      75A      4.942198    76A      5.020688    77A      5.313028  
      78A      5.326281    79A      5.576667    80A      6.287990  
      81A      6.812549    82A     33.527137  

    Final Occupation by Irrep:
              A 
    DOCC [     5 ]

  @DF-RHF Final Energy:   -76.03572452773116

   => Energetics <=

    Nuclear Repulsion Energy =              8.8014203545751517
    One-Electron Energy =                -122.2745487197624641
    Two-Electron Energy =                  37.4374038374561451
    Total Energy =                        -76.0357245277311620

Computation Completed


Properties will be evaluated at   0.000000,   0.000000,   0.000000 [a0]

Properties computed using the SCF density matrix


 Multipole Moments:

 ------------------------------------------------------------------------------------
     Multipole            Electronic (a.u.)      Nuclear  (a.u.)        Total (a.u.)
 ------------------------------------------------------------------------------------

 L = 1.  Multiply by 2.5417464519 to convert [e a0] to [Debye]
 Dipole X            :         -0.0000638            0.0000000           -0.0000638
 Dipole Y            :         -0.6852927            1.3175347            0.6322421
 Dipole Z            :         31.1787179          -30.6894256            0.4892923
 Magnitude           :                                                    0.7994605

 ------------------------------------------------------------------------------------

*** tstop() called on Lenovo-Y540-Zoha at Tue Sep 27 18:46:36 2022
Module time:
	user time   =        nan seconds =        nan minutes
	system time =        nan seconds =        nan minutes
	total time  =          1 seconds =       0.02 minutes
Total time:
	user time   =        nan seconds =        nan minutes
	system time =        nan seconds =        nan minutes
	total time  =       1215 seconds =      20.25 minutes

    Psi4 stopped on: Tuesday, 27 September 2022 06:46PM
    Psi4 wall time for execution: 0:00:01.04


    -----------------------------------------------------------------------
          Psi4: An Open-Source Ab Initio Electronic Structure Package
                               Psi4 1.6.1 release

                         Git: Rev {HEAD} 5b9f6e3 


    D. G. A. Smith, L. A. Burns, A. C. Simmonett, R. M. Parrish,
    M. C. Schieber, R. Galvelis, P. Kraus, H. Kruse, R. Di Remigio,
    A. Alenaizan, A. M. James, S. Lehtola, J. P. Misiewicz, M. Scheurer,
    R. A. Shaw, J. B. Schriber, Y. Xie, Z. L. Glick, D. A. Sirianni,
    J. S. O'Brien, J. M. Waldrop, A. Kumar, E. G. Hohenstein,
    B. P. Pritchard, B. R. Brooks, H. F. Schaefer III, A. Yu. Sokolov,
    K. Patkowski, A. E. DePrince III, U. Bozkaya, R. A. King,
    F. A. Evangelista, J. M. Turney, T. D. Crawford, C. D. Sherrill,
    J. Chem. Phys. 152(18) 184108 (2020). https://doi.org/10.1063/5.0006002

                            Additional Code Authors
    E. T. Seidl, C. L. Janssen, E. F. Valeev, M. L. Leininger,
    J. F. Gonthier, R. M. Richard, H. R. McAlexander, M. Saitow, X. Wang,
    P. Verma, M. H. Lechner, and A. Jiang

             Previous Authors, Complete List of Code Contributors,
                       and Citations for Specific Modules
    https://github.com/psi4/psi4/blob/master/codemeta.json
    https://github.com/psi4/psi4/graphs/contributors
    http://psicode.org/psi4manual/master/introduction.html#citing-psifour

    -----------------------------------------------------------------------


    Psi4 started on: Tuesday, 27 September 2022 06:25PM

    Process ID: 10544
    Host:       Lenovo-Y540-Zoha
    PSIDATADIR: C:\Users\64292\Anaconda3\envs\qm-tools\lib\share\psi4
    Memory:     476.8 MiB
    Threads:    1
    
  ==> Input QCSchema <==

--------------------------------------------------------------------------
{'driver': 'energy',
 'extras': {'psiapi': True, 'wfn_qcvars_only': True},
 'id': None,
 'keywords': {'function_kwargs': {}},
 'model': {'basis': 'aug-cc-pvdz', 'method': 'scf'},
 'molecule': {'atom_labels': ['1', '2', '3', '5', '6', '7'],
              'atomic_numbers': [8, 1, 1, 8, 1, 1],
              'fix_com': True,
              'fix_orientation': True,
              'fragment_charges': [0.0, 0.0],
              'fragment_multiplicities': [1, 1],
              'fragments': [[0, 1, 2], [3, 4, 5]],
              'geometry': [1.2328575412292244e-17, -0.051183389255754774, -3.2105363494042334, 1.2328575412292244e-17,
                           -0.051183389255754774, -1.320810223946406, 1.2328575412292244e-17, 1.7781852282291912,
                           -3.684324583322165, 1.2328575412292244e-17, -0.051183389255754774, 3.0255598646065995,
                           -0.8182754154208096, 1.3661112048376154, 3.970422927335512, 0.8182754154208092,
                           -1.4684779833491264, 3.970422927335511],
              'mass_numbers': [16, 1, 1, 16, 1, 1],
              'masses': [15.99491461957, 1.00782503223, 1.00782503223, 15.99491461957, 1.00782503223, 1.00782503223],
              'molecular_charge': 0.0,
              'molecular_multiplicity': 1,
              'name': 'H4O2',
              'provenance': {'creator': 'QCElemental',
                             'routine': 'qcelemental.molparse.from_string',
                             'version': 'v0.25.0'},
              'real': [True, True, True, True, True, True],
              'schema_name': 'qcschema_molecule',
              'schema_version': 2,
              'symbols': ['O', 'H', 'H', 'O', 'H', 'H'],
              'validated': True},
 'protocols': {'stdout': True},
 'provenance': {'creator': 'QCElemental', 'routine': 'qcelemental.models.results', 'version': 'v0.25.0'},
 'schema_name': 'qcschema_input',
 'schema_version': 1}
--------------------------------------------------------------------------

Scratch directory: C:\Users\64292\AppData\Local\Temp/

*** tstart() called on Lenovo-Y540-Zoha
*** at Tue Sep 27 18:46:36 2022

   => Loading Basis Set <=

    Name: AUG-CC-PVDZ
    Role: ORBITAL
    Keyword: BASIS
    atoms 1, 4     entry O          line   254 file C:\Users\64292\Anaconda3\envs\qm-tools\lib\share\psi4\basis\aug-cc-pvdz.gbs 
    atoms 2-3, 5-6 entry H          line    40 file C:\Users\64292\Anaconda3\envs\qm-tools\lib\share\psi4\basis\aug-cc-pvdz.gbs 


         ---------------------------------------------------------
                                   SCF
               by Justin Turney, Rob Parrish, Andy Simmonett
                          and Daniel G. A. Smith
                              RHF Reference
                        1 Threads,    476 MiB Core
         ---------------------------------------------------------

  ==> Geometry <==

    Molecular point group: c1
    Full point group: C1

    Geometry (in Bohr), charge = 0, multiplicity = 1:

       Center              X                  Y                   Z               Mass       
    ------------   -----------------  -----------------  -----------------  -----------------
         O            0.000000000000    -0.051183389256    -3.210536349404    15.994914619570
         H            0.000000000000    -0.051183389256    -1.320810223946     1.007825032230
         H            0.000000000000     1.778185228229    -3.684324583322     1.007825032230
         O            0.000000000000    -0.051183389256     3.025559864607    15.994914619570
         H           -0.818275415421     1.366111204838     3.970422927336     1.007825032230
         H            0.818275415421    -1.468477983349     3.970422927336     1.007825032230

  Running in c1 symmetry.

  Rotational constants: A =      7.04454  B =      0.16761  C =      0.16419 [cm^-1]
  Rotational constants: A = 211190.13719  B =   5024.87641  C =   4922.29100 [MHz]
  Nuclear repulsion =   33.610428776729492

  Charge       = 0
  Multiplicity = 1
  Electrons    = 20
  Nalpha       = 10
  Nbeta        = 10

  ==> Algorithm <==

  SCF Algorithm Type is DF.
  DIIS enabled.
  MOM disabled.
  Fractional occupation disabled.
  Guess Type is SAD.
  Energy threshold   = 1.00e-06
  Density threshold  = 1.00e-06
  Integral threshold = 1.00e-12

  ==> Primary Basis <==

  Basis Set: AUG-CC-PVDZ
    Blend: AUG-CC-PVDZ
    Number of shells: 38
    Number of basis functions: 82
    Number of Cartesian functions: 86
    Spherical Harmonics?: true
    Max angular momentum: 2

   => Loading Basis Set <=

    Name: (AUG-CC-PVDZ AUX)
    Role: JKFIT
    Keyword: DF_BASIS_SCF
    atoms 1, 4     entry O          line   270 file C:\Users\64292\Anaconda3\envs\qm-tools\lib\share\psi4\basis\aug-cc-pvdz-jkfit.gbs 
    atoms 2-3, 5-6 entry H          line    70 file C:\Users\64292\Anaconda3\envs\qm-tools\lib\share\psi4\basis\aug-cc-pvdz-jkfit.gbs 

  ==> Integral Setup <==

  DFHelper Memory: AOs need 0.017 GiB; user supplied 0.349 GiB. Using in-core AOs.

  ==> MemDFJK: Density-Fitted J/K Matrices <==

    J tasked:                   Yes
    K tasked:                   Yes
    wK tasked:                   No
    OpenMP threads:               1
    Memory [MiB]:               357
    Algorithm:                 Core
    Schwarz Cutoff:           1E-12
    Mask sparsity (%):       0.0000
    Fitting Condition:        1E-10

   => Auxiliary Basis Set <=

  Basis Set: (AUG-CC-PVDZ AUX)
    Blend: AUG-CC-PVDZ-JKFIT
    Number of shells: 104
    Number of basis functions: 300
    Number of Cartesian functions: 342
    Spherical Harmonics?: true
    Max angular momentum: 3

  Minimum eigenvalue in the overlap matrix is 2.1441707314E-03.
  Reciprocal condition number of the overlap matrix is 3.0820276201E-04.
    Using symmetric orthogonalization.

  ==> Pre-Iterations <==

  SCF Guess: Superposition of Atomic Densities via on-the-fly atomic UHF (no occupation information).

   -------------------------
    Irrep   Nso     Nmo    
   -------------------------
     A         82      82 
   -------------------------
    Total      82      82
   -------------------------

  ==> Iterations <==

                           Total Energy        Delta E     RMS |[F,P]|

   @DF-RHF iter SAD:  -150.85234527034666   -1.50852e+02   0.00000e+00 
   @DF-RHF iter   1:  -151.90943635415317   -1.05709e+00   7.59744e-03 DIIS/ADIIS
   @DF-RHF iter   2:  -152.00964947012343   -1.00213e-01   5.05310e-03 DIIS/ADIIS
   @DF-RHF iter   3:  -152.07019022868747   -6.05408e-02   4.07557e-04 DIIS/ADIIS
   @DF-RHF iter   4:  -152.07113408137297   -9.43853e-04   8.99064e-05 DIIS
   @DF-RHF iter   5:  -152.07119111189036   -5.70305e-05   2.52319e-05 DIIS
   @DF-RHF iter   6:  -152.07119640617441   -5.29428e-06   1.12594e-05 DIIS
   @DF-RHF iter   7:  -152.07119700643355   -6.00259e-07   2.65898e-06 DIIS
   @DF-RHF iter   8:  -152.07119707478068   -6.83471e-08   4.45878e-07 DIIS
  Energy and wave function converged.


  ==> Post-Iterations <==

    Orbital Energies [Eh]
    ---------------------

    Doubly Occupied:                                                      

       1A    -20.595543     2A    -20.558562     3A     -1.346629  
       4A     -1.311296     5A     -0.741096     6A     -0.674056  
       7A     -0.576368     8A     -0.549163     9A     -0.521501  
      10A     -0.481977  

    Virtual:                                                              

      11A      0.026334    12A      0.049526    13A      0.057363  
      14A      0.089656    15A      0.174848    16A      0.181598  
      17A      0.194840    18A      0.213519    19A      0.231503  
      20A      0.234711    21A      0.246527    22A      0.268365  
      23A      0.297250    24A      0.306400    25A      0.351401  
      26A      0.364404    27A      0.404624    28A      0.421219  
      29A      0.434562    30A      0.458418    31A      0.515504  
      32A      0.531860    33A      0.534853    34A      0.580733  
      35A      0.629108    36A      0.651894    37A      0.665555  
      38A      0.774549    39A      0.848112    40A      0.866526  
      41A      0.905839    42A      0.977390    43A      1.061349  
      44A      1.127818    45A      1.136125    46A      1.168014  
      47A      1.207143    48A      1.217732    49A      1.328538  
      50A      1.425988    51A      1.461410    52A      1.494859  
      53A      1.519314    54A      1.575302    55A      1.609940  
      56A      1.891867    57A      1.952202    58A      2.014623  
      59A      2.024576    60A      2.030632    61A      2.041962  
      62A      2.112290    63A      2.349397    64A      2.380834  
      65A      2.429617    66A      2.469361    67A      2.513486  
      68A      2.692981    69A      2.747040    70A      2.777007  
      71A      2.924200    72A      3.011212    73A      3.643271  
      74A      3.680663    75A      3.700975    76A      3.730943  
      77A      3.744452    78A      3.756353    79A      4.053043  
      80A      4.121786    81A      4.168539    82A      4.297742  

    Final Occupation by Irrep:
              A 
    DOCC [    10 ]

  @DF-RHF Final Energy:  -152.07119707478068

   => Energetics <=

    Nuclear Repulsion Energy =             33.6104287767294920
    One-Electron Energy =                -276.6508461901212854
    Two-Electron Energy =                  90.9692203386110947
    Total Energy =                       -152.0711970747806845

Computation Completed


Properties will be evaluated at   0.000000,   0.000000,   0.000000 [a0]

Properties computed using the SCF density matrix


 Multipole Moments:

 ------------------------------------------------------------------------------------
     Multipole            Electronic (a.u.)      Nuclear  (a.u.)        Total (a.u.)
 ------------------------------------------------------------------------------------

 L = 1.  Multiply by 2.5417464519 to convert [e a0] to [Debye]
 Dipole X            :          0.0009855           -0.0000000            0.0009855
 Dipole Y            :         -0.1942250            0.8057008            0.6114759
 Dipole Z            :         -0.1145886            1.4558992            1.3413106
 Magnitude           :                                                    1.4741160

 ------------------------------------------------------------------------------------

*** tstop() called on Lenovo-Y540-Zoha at Tue Sep 27 18:46:37 2022
Module time:
	user time   =        nan seconds =        nan minutes
	system time =        nan seconds =        nan minutes
	total time  =          1 seconds =       0.02 minutes
Total time:
	user time   =        nan seconds =        nan minutes
	system time =        nan seconds =        nan minutes
	total time  =       1216 seconds =      20.27 minutes

    Psi4 stopped on: Tuesday, 27 September 2022 06:46PM
    Psi4 wall time for execution: 0:00:01.03


  //>>>>>>>>>>>>>>>>>>>>>>>>>>>>>>>>>>>//
  //          ManyBody Results         //
  //<<<<<<<<<<<<<<<<<<<<<<<<<<<<<<<<<<<//


   ==> N-Body: Counterpoise Corrected (CP) energies <==

        n-Body     Total Energy            Interaction Energy                          N-body Contribution to Interaction Energy
                   [Eh]                    [Eh]                  [kcal/mol]            [Eh]                  [kcal/mol]
             1  N/A                         0.000000000000        0.000000000000        0.000000000000        0.000000000000
  FULL/RTN   2  N/A                        -0.005617328330       -3.524926744147       -0.005617328330       -3.524926744147

