
Scratch directory: C:\Users\64292\AppData\Local\Temp/

  //>>>>>>>>>>>>>>>>>>>>>>>>>>>>>>>>>>>>>//
  // ManyBody Setup: N-Body Levels [1, 2]//
  //<<<<<<<<<<<<<<<<<<<<<<<<<<<<<<<<<<<<<//

        Number of 1-body computations:     2
        Number of 2-body computations:     1

    -----------------------------------------------------------------------
          Psi4: An Open-Source Ab Initio Electronic Structure Package
                               Psi4 1.6.1 release

                         Git: Rev {HEAD} 5b9f6e3 


    D. G. A. Smith, L. A. Burns, A. C. Simmonett, R. M. Parrish,
    M. C. Schieber, R. Galvelis, P. Kraus, H. Kruse, R. Di Remigio,
    A. Alenaizan, A. M. James, S. Lehtola, J. P. Misiewicz, M. Scheurer,
    R. A. Shaw, J. B. Schriber, Y. Xie, Z. L. Glick, D. A. Sirianni,
    J. S. O'Brien, J. M. Waldrop, A. Kumar, E. G. Hohenstein,
    B. P. Pritchard, B. R. Brooks, H. F. Schaefer III, A. Yu. Sokolov,
    K. Patkowski, A. E. DePrince III, U. Bozkaya, R. A. King,
    F. A. Evangelista, J. M. Turney, T. D. Crawford, C. D. Sherrill,
    J. Chem. Phys. 152(18) 184108 (2020). https://doi.org/10.1063/5.0006002

                            Additional Code Authors
    E. T. Seidl, C. L. Janssen, E. F. Valeev, M. L. Leininger,
    J. F. Gonthier, R. M. Richard, H. R. McAlexander, M. Saitow, X. Wang,
    P. Verma, M. H. Lechner, and A. Jiang

             Previous Authors, Complete List of Code Contributors,
                       and Citations for Specific Modules
    https://github.com/psi4/psi4/blob/master/codemeta.json
    https://github.com/psi4/psi4/graphs/contributors
    http://psicode.org/psi4manual/master/introduction.html#citing-psifour

    -----------------------------------------------------------------------


    Psi4 started on: Tuesday, 27 September 2022 06:25PM

    Process ID: 10544
    Host:       Lenovo-Y540-Zoha
    PSIDATADIR: C:\Users\64292\Anaconda3\envs\qm-tools\lib\share\psi4
    Memory:     476.8 MiB
    Threads:    1
    
  ==> Input QCSchema <==

--------------------------------------------------------------------------
{'driver': 'energy',
 'extras': {'psiapi': True, 'wfn_qcvars_only': True},
 'id': None,
 'keywords': {'function_kwargs': {}},
 'model': {'basis': 'aug-cc-pvdz', 'method': 'scf'},
 'molecule': {'atom_labels': ['1', '2', '3', '5', '6', '7'],
              'atomic_numbers': [8, 1, 1, 8, 1, 1],
              'fix_com': True,
              'fix_orientation': True,
              'fragment_charges': [0.0, 0.0],
              'fragment_multiplicities': [1, 1],
              'fragments': [[0, 1, 2], [3, 4, 5]],
              'geometry': [0.05118338925575477, 2.8325911243126685, 0.0, 0.05118338925575477, 0.9428649988548403, 0.0,
                           -1.7781852282291912, 3.3063793582306, 0.0, 0.05118338925575477, -2.6476146395150337, 0.0,
                           -1.585367441585863, -3.592477702243948, 0.0, 1.687734220097374, -3.592477702243947, 0.0],
              'mass_numbers': [16, 1, 1, 16, 1, 1],
              'masses': [15.99491461957, 1.00782503223, 1.00782503223, 15.99491461957, 1.00782503223, 1.00782503223],
              'molecular_charge': 0.0,
              'molecular_multiplicity': 1,
              'name': 'H4O2',
              'provenance': {'creator': 'QCElemental',
                             'routine': 'qcelemental.molparse.from_string',
                             'version': 'v0.25.0'},
              'real': [False, False, False, True, True, True],
              'schema_name': 'qcschema_molecule',
              'schema_version': 2,
              'symbols': ['O', 'H', 'H', 'O', 'H', 'H'],
              'validated': True},
 'protocols': {'stdout': True},
 'provenance': {'creator': 'QCElemental', 'routine': 'qcelemental.models.results', 'version': 'v0.25.0'},
 'schema_name': 'qcschema_input',
 'schema_version': 1}
--------------------------------------------------------------------------

Scratch directory: C:\Users\64292\AppData\Local\Temp/

*** tstart() called on Lenovo-Y540-Zoha
*** at Tue Sep 27 18:40:34 2022

   => Loading Basis Set <=

    Name: AUG-CC-PVDZ
    Role: ORBITAL
    Keyword: BASIS
    atoms 1, 4     entry O          line   254 file C:\Users\64292\Anaconda3\envs\qm-tools\lib\share\psi4\basis\aug-cc-pvdz.gbs 
    atoms 2-3, 5-6 entry H          line    40 file C:\Users\64292\Anaconda3\envs\qm-tools\lib\share\psi4\basis\aug-cc-pvdz.gbs 


         ---------------------------------------------------------
                                   SCF
               by Justin Turney, Rob Parrish, Andy Simmonett
                          and Daniel G. A. Smith
                              RHF Reference
                        1 Threads,    476 MiB Core
         ---------------------------------------------------------

  ==> Geometry <==

    Molecular point group: cs
    Full point group: Cs

    Geometry (in Bohr), charge = 0, multiplicity = 1:

       Center              X                  Y                   Z               Mass       
    ------------   -----------------  -----------------  -----------------  -----------------
      Gh(O)           0.051183389256     2.832591124313     0.000000000000    15.994914619570
      Gh(H)           0.051183389256     0.942864998855     0.000000000000     1.007825032230
      Gh(H)          -1.778185228229     3.306379358231     0.000000000000     1.007825032230
         O            0.051183389256    -2.647614639515     0.000000000000    15.994914619570
         H           -1.585367441586    -3.592477702244     0.000000000000     1.007825032230
         H            1.687734220097    -3.592477702244     0.000000000000     1.007825032230

  Running in cs symmetry.

  Rotational constants: A =      7.04979  B =      0.21614  C =      0.20971 [cm^-1]
  Rotational constants: A = 211347.43785  B =   6479.66975  C =   6286.92000 [MHz]
  Nuclear repulsion =    8.772355975749340

  Charge       = 0
  Multiplicity = 1
  Electrons    = 10
  Nalpha       = 5
  Nbeta        = 5

  ==> Algorithm <==

  SCF Algorithm Type is DF.
  DIIS enabled.
  MOM disabled.
  Fractional occupation disabled.
  Guess Type is SAD.
  Energy threshold   = 1.00e-06
  Density threshold  = 1.00e-06
  Integral threshold = 1.00e-12

  ==> Primary Basis <==

  Basis Set: AUG-CC-PVDZ
    Blend: AUG-CC-PVDZ
    Number of shells: 38
    Number of basis functions: 82
    Number of Cartesian functions: 86
    Spherical Harmonics?: true
    Max angular momentum: 2

   => Loading Basis Set <=

    Name: (AUG-CC-PVDZ AUX)
    Role: JKFIT
    Keyword: DF_BASIS_SCF
    atoms 1, 4     entry O          line   270 file C:\Users\64292\Anaconda3\envs\qm-tools\lib\share\psi4\basis\aug-cc-pvdz-jkfit.gbs 
    atoms 2-3, 5-6 entry H          line    70 file C:\Users\64292\Anaconda3\envs\qm-tools\lib\share\psi4\basis\aug-cc-pvdz-jkfit.gbs 

  ==> Integral Setup <==

  DFHelper Memory: AOs need 0.017 GiB; user supplied 0.349 GiB. Using in-core AOs.

  ==> MemDFJK: Density-Fitted J/K Matrices <==

    J tasked:                   Yes
    K tasked:                   Yes
    wK tasked:                   No
    OpenMP threads:               1
    Memory [MiB]:               357
    Algorithm:                 Core
    Schwarz Cutoff:           1E-12
    Mask sparsity (%):       0.0000
    Fitting Condition:        1E-10

   => Auxiliary Basis Set <=

  Basis Set: (AUG-CC-PVDZ AUX)
    Blend: AUG-CC-PVDZ-JKFIT
    Number of shells: 104
    Number of basis functions: 300
    Number of Cartesian functions: 342
    Spherical Harmonics?: true
    Max angular momentum: 3

  Minimum eigenvalue in the overlap matrix is 1.7711366361E-03.
  Reciprocal condition number of the overlap matrix is 2.3710497857E-04.
    Using symmetric orthogonalization.

  ==> Pre-Iterations <==

  SCF Guess: Superposition of Atomic Densities via on-the-fly atomic UHF (no occupation information).

   -------------------------
    Irrep   Nso     Nmo    
   -------------------------
     A'        60      60 
     A"        22      22 
   -------------------------
    Total      82      82
   -------------------------

  ==> Iterations <==

                           Total Energy        Delta E     RMS |[F,P]|

   @DF-RHF iter SAD:   -75.40236271287273   -7.54024e+01   0.00000e+00 
   @DF-RHF iter   1:   -75.94520037848200   -5.42838e-01   7.07024e-03 DIIS/ADIIS
   @DF-RHF iter   2:   -75.99639868014431   -5.11983e-02   4.78928e-03 DIIS/ADIIS
   @DF-RHF iter   3:   -76.02948113148844   -3.30825e-02   3.65354e-04 DIIS/ADIIS
   @DF-RHF iter   4:   -76.02995996475700   -4.78833e-04   8.56038e-05 DIIS
   @DF-RHF iter   5:   -76.02999258449080   -3.26197e-05   2.09313e-05 DIIS
   @DF-RHF iter   6:   -76.02999566744263   -3.08295e-06   4.49169e-06 DIIS
   @DF-RHF iter   7:   -76.02999582279899   -1.55356e-07   8.25997e-07 DIIS
  Energy and wave function converged.


  ==> Post-Iterations <==

    Orbital Energies [Eh]
    ---------------------

    Doubly Occupied:                                                      

       1Ap   -20.575846     2Ap    -1.325802     3Ap    -0.721145  
       4Ap    -0.548209     1App   -0.500608  

    Virtual:                                                              

       5Ap     0.032511     6Ap     0.053260     7Ap     0.056706  
       8Ap     0.086308     2App    0.157989     9Ap     0.175139  
      10Ap     0.182382    11Ap     0.198329    12Ap     0.219381  
       3App    0.220525    13Ap     0.242722    14Ap     0.251031  
      15Ap     0.315455    16Ap     0.328681     4App    0.372230  
      17Ap     0.406775     5App    0.452265     6App    0.460144  
      18Ap     0.469114    19Ap     0.491855    20Ap     0.524682  
      21Ap     0.538660     7App    0.540380    22Ap     0.574225  
      23Ap     0.641700    24Ap     0.647101    25Ap     0.670214  
      26Ap     0.731863    27Ap     0.879656    28Ap     0.913564  
       8App    0.930504    29Ap     0.963879     9App    1.142285  
      10App    1.146361    30Ap     1.150493    31Ap     1.203619  
      32Ap     1.236549    33Ap     1.294664    11App    1.340572  
      34Ap     1.402414    12App    1.404996    35Ap     1.450739  
      36Ap     1.501105    13App    1.570635    37Ap     1.588910  
      38Ap     1.764807    39Ap     2.021763    14App    2.048310  
      15App    2.054241    40Ap     2.168523    16App    2.381319  
      41Ap     2.383128    42Ap     2.422981    43Ap     2.464441  
      17App    2.487329    44Ap     2.548179    45Ap     2.647091  
      46Ap     2.755740    47Ap     2.922141    48Ap     2.956979  
      49Ap     3.446666    18App    3.700983    19App    3.716320  
      50Ap     3.856803    51Ap     3.921595    52Ap     4.095754  
      53Ap     4.147279    54Ap     4.204009    20App    4.914275  
      55Ap     4.961925    21App    4.998444    56Ap     5.210237  
      57Ap     5.501204    22App    5.664654    58Ap     6.487501  
      59Ap     6.927273    60Ap    33.575606  

    Final Occupation by Irrep:
             Ap   App 
    DOCC [     4,    1 ]

  @DF-RHF Final Energy:   -76.02999582279899

   => Energetics <=

    Nuclear Repulsion Energy =              8.7723559757493401
    One-Electron Energy =                -122.2614504380992457
    Two-Electron Energy =                  37.4590986395509304
    Total Energy =                        -76.0299958227989805

Computation Completed


Properties will be evaluated at   0.000000,   0.000000,   0.000000 [a0]

Properties computed using the SCF density matrix


 Multipole Moments:

 ------------------------------------------------------------------------------------
     Multipole            Electronic (a.u.)      Nuclear  (a.u.)        Total (a.u.)
 ------------------------------------------------------------------------------------

 L = 1.  Multiply by 2.5417464519 to convert [e a0] to [Debye]
 Dipole X            :         -0.5116347            0.5118339            0.0001992
 Dipole Y            :         27.6812546          -28.3658725           -0.6846179
 Dipole Z            :          0.0000000            0.0000000            0.0000000
 Magnitude           :                                                    0.6846179

 ------------------------------------------------------------------------------------

*** tstop() called on Lenovo-Y540-Zoha at Tue Sep 27 18:40:34 2022
Module time:
	user time   =        nan seconds =        nan minutes
	system time =        nan seconds =        nan minutes
	total time  =          0 seconds =       0.00 minutes
Total time:
	user time   =        nan seconds =        nan minutes
	system time =        nan seconds =        nan minutes
	total time  =        853 seconds =      14.22 minutes

    Psi4 stopped on: Tuesday, 27 September 2022 06:40PM
    Psi4 wall time for execution: 0:00:01.00


    -----------------------------------------------------------------------
          Psi4: An Open-Source Ab Initio Electronic Structure Package
                               Psi4 1.6.1 release

                         Git: Rev {HEAD} 5b9f6e3 


    D. G. A. Smith, L. A. Burns, A. C. Simmonett, R. M. Parrish,
    M. C. Schieber, R. Galvelis, P. Kraus, H. Kruse, R. Di Remigio,
    A. Alenaizan, A. M. James, S. Lehtola, J. P. Misiewicz, M. Scheurer,
    R. A. Shaw, J. B. Schriber, Y. Xie, Z. L. Glick, D. A. Sirianni,
    J. S. O'Brien, J. M. Waldrop, A. Kumar, E. G. Hohenstein,
    B. P. Pritchard, B. R. Brooks, H. F. Schaefer III, A. Yu. Sokolov,
    K. Patkowski, A. E. DePrince III, U. Bozkaya, R. A. King,
    F. A. Evangelista, J. M. Turney, T. D. Crawford, C. D. Sherrill,
    J. Chem. Phys. 152(18) 184108 (2020). https://doi.org/10.1063/5.0006002

                            Additional Code Authors
    E. T. Seidl, C. L. Janssen, E. F. Valeev, M. L. Leininger,
    J. F. Gonthier, R. M. Richard, H. R. McAlexander, M. Saitow, X. Wang,
    P. Verma, M. H. Lechner, and A. Jiang

             Previous Authors, Complete List of Code Contributors,
                       and Citations for Specific Modules
    https://github.com/psi4/psi4/blob/master/codemeta.json
    https://github.com/psi4/psi4/graphs/contributors
    http://psicode.org/psi4manual/master/introduction.html#citing-psifour

    -----------------------------------------------------------------------


    Psi4 started on: Tuesday, 27 September 2022 06:25PM

    Process ID: 10544
    Host:       Lenovo-Y540-Zoha
    PSIDATADIR: C:\Users\64292\Anaconda3\envs\qm-tools\lib\share\psi4
    Memory:     476.8 MiB
    Threads:    1
    
  ==> Input QCSchema <==

--------------------------------------------------------------------------
{'driver': 'energy',
 'extras': {'psiapi': True, 'wfn_qcvars_only': True},
 'id': None,
 'keywords': {'function_kwargs': {}},
 'model': {'basis': 'aug-cc-pvdz', 'method': 'scf'},
 'molecule': {'atom_labels': ['1', '2', '3', '5', '6', '7'],
              'atomic_numbers': [8, 1, 1, 8, 1, 1],
              'fix_com': True,
              'fix_orientation': True,
              'fragment_charges': [0.0, 0.0],
              'fragment_multiplicities': [1, 1],
              'fragments': [[0, 1, 2], [3, 4, 5]],
              'geometry': [0.05118338925575477, 2.8325911243126685, 0.0, 0.05118338925575477, 0.9428649988548403, 0.0,
                           -1.7781852282291912, 3.3063793582306, 0.0, 0.05118338925575477, -2.6476146395150337, 0.0,
                           -1.585367441585863, -3.592477702243948, 0.0, 1.687734220097374, -3.592477702243947, 0.0],
              'mass_numbers': [16, 1, 1, 16, 1, 1],
              'masses': [15.99491461957, 1.00782503223, 1.00782503223, 15.99491461957, 1.00782503223, 1.00782503223],
              'molecular_charge': 0.0,
              'molecular_multiplicity': 1,
              'name': 'H4O2',
              'provenance': {'creator': 'QCElemental',
                             'routine': 'qcelemental.molparse.from_string',
                             'version': 'v0.25.0'},
              'real': [True, True, True, False, False, False],
              'schema_name': 'qcschema_molecule',
              'schema_version': 2,
              'symbols': ['O', 'H', 'H', 'O', 'H', 'H'],
              'validated': True},
 'protocols': {'stdout': True},
 'provenance': {'creator': 'QCElemental', 'routine': 'qcelemental.models.results', 'version': 'v0.25.0'},
 'schema_name': 'qcschema_input',
 'schema_version': 1}
--------------------------------------------------------------------------

Scratch directory: C:\Users\64292\AppData\Local\Temp/

*** tstart() called on Lenovo-Y540-Zoha
*** at Tue Sep 27 18:40:35 2022

   => Loading Basis Set <=

    Name: AUG-CC-PVDZ
    Role: ORBITAL
    Keyword: BASIS
    atoms 1, 4     entry O          line   254 file C:\Users\64292\Anaconda3\envs\qm-tools\lib\share\psi4\basis\aug-cc-pvdz.gbs 
    atoms 2-3, 5-6 entry H          line    40 file C:\Users\64292\Anaconda3\envs\qm-tools\lib\share\psi4\basis\aug-cc-pvdz.gbs 


         ---------------------------------------------------------
                                   SCF
               by Justin Turney, Rob Parrish, Andy Simmonett
                          and Daniel G. A. Smith
                              RHF Reference
                        1 Threads,    476 MiB Core
         ---------------------------------------------------------

  ==> Geometry <==

    Molecular point group: cs
    Full point group: Cs

    Geometry (in Bohr), charge = 0, multiplicity = 1:

       Center              X                  Y                   Z               Mass       
    ------------   -----------------  -----------------  -----------------  -----------------
         O            0.051183389256     2.832591124313     0.000000000000    15.994914619570
         H            0.051183389256     0.942864998855     0.000000000000     1.007825032230
         H           -1.778185228229     3.306379358231     0.000000000000     1.007825032230
      Gh(O)           0.051183389256    -2.647614639515     0.000000000000    15.994914619570
      Gh(H)          -1.585367441586    -3.592477702244     0.000000000000     1.007825032230
      Gh(H)           1.687734220097    -3.592477702244     0.000000000000     1.007825032230

  Running in cs symmetry.

  Rotational constants: A =      7.04979  B =      0.21614  C =      0.20971 [cm^-1]
  Rotational constants: A = 211347.43785  B =   6479.66975  C =   6286.92000 [MHz]
  Nuclear repulsion =    8.801420354575150

  Charge       = 0
  Multiplicity = 1
  Electrons    = 10
  Nalpha       = 5
  Nbeta        = 5

  ==> Algorithm <==

  SCF Algorithm Type is DF.
  DIIS enabled.
  MOM disabled.
  Fractional occupation disabled.
  Guess Type is SAD.
  Energy threshold   = 1.00e-06
  Density threshold  = 1.00e-06
  Integral threshold = 1.00e-12

  ==> Primary Basis <==

  Basis Set: AUG-CC-PVDZ
    Blend: AUG-CC-PVDZ
    Number of shells: 38
    Number of basis functions: 82
    Number of Cartesian functions: 86
    Spherical Harmonics?: true
    Max angular momentum: 2

   => Loading Basis Set <=

    Name: (AUG-CC-PVDZ AUX)
    Role: JKFIT
    Keyword: DF_BASIS_SCF
    atoms 1, 4     entry O          line   270 file C:\Users\64292\Anaconda3\envs\qm-tools\lib\share\psi4\basis\aug-cc-pvdz-jkfit.gbs 
    atoms 2-3, 5-6 entry H          line    70 file C:\Users\64292\Anaconda3\envs\qm-tools\lib\share\psi4\basis\aug-cc-pvdz-jkfit.gbs 

  ==> Integral Setup <==

  DFHelper Memory: AOs need 0.017 GiB; user supplied 0.349 GiB. Using in-core AOs.

  ==> MemDFJK: Density-Fitted J/K Matrices <==

    J tasked:                   Yes
    K tasked:                   Yes
    wK tasked:                   No
    OpenMP threads:               1
    Memory [MiB]:               357
    Algorithm:                 Core
    Schwarz Cutoff:           1E-12
    Mask sparsity (%):       0.0000
    Fitting Condition:        1E-10

   => Auxiliary Basis Set <=

  Basis Set: (AUG-CC-PVDZ AUX)
    Blend: AUG-CC-PVDZ-JKFIT
    Number of shells: 104
    Number of basis functions: 300
    Number of Cartesian functions: 342
    Spherical Harmonics?: true
    Max angular momentum: 3

  Minimum eigenvalue in the overlap matrix is 1.7711366361E-03.
  Reciprocal condition number of the overlap matrix is 2.3710497857E-04.
    Using symmetric orthogonalization.

  ==> Pre-Iterations <==

  SCF Guess: Superposition of Atomic Densities via on-the-fly atomic UHF (no occupation information).

   -------------------------
    Irrep   Nso     Nmo    
   -------------------------
     A'        60      60 
     A"        22      22 
   -------------------------
    Total      82      82
   -------------------------

  ==> Iterations <==

                           Total Energy        Delta E     RMS |[F,P]|

   @DF-RHF iter SAD:   -75.41487084894207   -7.54149e+01   0.00000e+00 
   @DF-RHF iter   1:   -75.94942152951430   -5.34551e-01   7.06563e-03 DIIS/ADIIS
   @DF-RHF iter   2:   -76.00130348060307   -5.18820e-02   4.84535e-03 DIIS/ADIIS
   @DF-RHF iter   3:   -76.03525397730401   -3.39505e-02   3.67635e-04 DIIS/ADIIS
   @DF-RHF iter   4:   -76.03571519256138   -4.61215e-04   8.46493e-05 DIIS
   @DF-RHF iter   5:   -76.03574535479770   -3.01622e-05   2.00934e-05 DIIS
   @DF-RHF iter   6:   -76.03574793677089   -2.58197e-06   3.97064e-06 DIIS
   @DF-RHF iter   7:   -76.03574804035391   -1.03583e-07   6.47908e-07 DIIS
  Energy and wave function converged.


  ==> Post-Iterations <==

    Orbital Energies [Eh]
    ---------------------

    Doubly Occupied:                                                      

       1Ap   -20.584235     2Ap    -1.335640     3Ap    -0.696497  
       4Ap    -0.577363     1App   -0.506058  

    Virtual:                                                              

       5Ap     0.024766     6Ap     0.049493     7Ap     0.059487  
       8Ap     0.084266     2App    0.137860     9Ap     0.141323  
      10Ap     0.180515    11Ap     0.197011     3App    0.222312  
      12Ap     0.227307    13Ap     0.229497    14Ap     0.271772  
      15Ap     0.327855    16Ap     0.354395    17Ap     0.382335  
       4App    0.393243    18Ap     0.398262     5App    0.421722  
       6App    0.448295    19Ap     0.473981    20Ap     0.480397  
       7App    0.482559    21Ap     0.494217    22Ap     0.563696  
      23Ap     0.587025    24Ap     0.646746    25Ap     0.652521  
      26Ap     0.781593    27Ap     0.854004     8App    0.927258  
      28Ap     0.953481    29Ap     1.038626     9App    1.110543  
      30Ap     1.152900    31Ap     1.178417    10App    1.181435  
      32Ap     1.206352    33Ap     1.286646    11App    1.292177  
      34Ap     1.307037    12App    1.329160    35Ap     1.395827  
      36Ap     1.445865    37Ap     1.517846    13App    1.568299  
      38Ap     1.761409    39Ap     1.992804    14App    2.003835  
      40Ap     2.049547    15App    2.111312    41Ap     2.295660  
      42Ap     2.364608    16App    2.378387    17App    2.389607  
      43Ap     2.453940    44Ap     2.553494    45Ap     2.621287  
      46Ap     2.732624    47Ap     2.961209    48Ap     2.993054  
      49Ap     3.446605    18App    3.675500    50Ap     3.711923  
      19App    3.723314    51Ap     3.969653    52Ap     3.990743  
      53Ap     4.083419    54Ap     4.313707    20App    4.902187  
      21App    4.934439    55Ap     5.061138    56Ap     5.326790  
      57Ap     5.377860    22App    5.590924    58Ap     6.410668  
      59Ap     6.806586    60Ap    33.529063  

    Final Occupation by Irrep:
             Ap   App 
    DOCC [     4,    1 ]

  @DF-RHF Final Energy:   -76.03574804035391

   => Energetics <=

    Nuclear Repulsion Energy =              8.8014203545751499
    One-Electron Energy =                -122.2747279065256549
    Two-Electron Energy =                  37.4375595115966036
    Total Energy =                        -76.0357480403539086

Computation Completed


Properties will be evaluated at   0.000000,   0.000000,   0.000000 [a0]

Properties computed using the SCF density matrix


 Multipole Moments:

 ------------------------------------------------------------------------------------
     Multipole            Electronic (a.u.)      Nuclear  (a.u.)        Total (a.u.)
 ------------------------------------------------------------------------------------

 L = 1.  Multiply by 2.5417464519 to convert [e a0] to [Debye]
 Dipole X            :          0.6854419           -1.3175347           -0.6320929
 Dipole Y            :        -27.3990735           26.9099734           -0.4891001
 Dipole Z            :          0.0000000            0.0000000            0.0000000
 Magnitude           :                                                    0.7992248

 ------------------------------------------------------------------------------------

*** tstop() called on Lenovo-Y540-Zoha at Tue Sep 27 18:40:35 2022
Module time:
	user time   =        nan seconds =        nan minutes
	system time =        nan seconds =        nan minutes
	total time  =          0 seconds =       0.00 minutes
Total time:
	user time   =        nan seconds =        nan minutes
	system time =        nan seconds =        nan minutes
	total time  =        854 seconds =      14.23 minutes

    Psi4 stopped on: Tuesday, 27 September 2022 06:40PM
    Psi4 wall time for execution: 0:00:01.02


    -----------------------------------------------------------------------
          Psi4: An Open-Source Ab Initio Electronic Structure Package
                               Psi4 1.6.1 release

                         Git: Rev {HEAD} 5b9f6e3 


    D. G. A. Smith, L. A. Burns, A. C. Simmonett, R. M. Parrish,
    M. C. Schieber, R. Galvelis, P. Kraus, H. Kruse, R. Di Remigio,
    A. Alenaizan, A. M. James, S. Lehtola, J. P. Misiewicz, M. Scheurer,
    R. A. Shaw, J. B. Schriber, Y. Xie, Z. L. Glick, D. A. Sirianni,
    J. S. O'Brien, J. M. Waldrop, A. Kumar, E. G. Hohenstein,
    B. P. Pritchard, B. R. Brooks, H. F. Schaefer III, A. Yu. Sokolov,
    K. Patkowski, A. E. DePrince III, U. Bozkaya, R. A. King,
    F. A. Evangelista, J. M. Turney, T. D. Crawford, C. D. Sherrill,
    J. Chem. Phys. 152(18) 184108 (2020). https://doi.org/10.1063/5.0006002

                            Additional Code Authors
    E. T. Seidl, C. L. Janssen, E. F. Valeev, M. L. Leininger,
    J. F. Gonthier, R. M. Richard, H. R. McAlexander, M. Saitow, X. Wang,
    P. Verma, M. H. Lechner, and A. Jiang

             Previous Authors, Complete List of Code Contributors,
                       and Citations for Specific Modules
    https://github.com/psi4/psi4/blob/master/codemeta.json
    https://github.com/psi4/psi4/graphs/contributors
    http://psicode.org/psi4manual/master/introduction.html#citing-psifour

    -----------------------------------------------------------------------


    Psi4 started on: Tuesday, 27 September 2022 06:25PM

    Process ID: 10544
    Host:       Lenovo-Y540-Zoha
    PSIDATADIR: C:\Users\64292\Anaconda3\envs\qm-tools\lib\share\psi4
    Memory:     476.8 MiB
    Threads:    1
    
  ==> Input QCSchema <==

--------------------------------------------------------------------------
{'driver': 'energy',
 'extras': {'psiapi': True, 'wfn_qcvars_only': True},
 'id': None,
 'keywords': {'function_kwargs': {}},
 'model': {'basis': 'aug-cc-pvdz', 'method': 'scf'},
 'molecule': {'atom_labels': ['1', '2', '3', '5', '6', '7'],
              'atomic_numbers': [8, 1, 1, 8, 1, 1],
              'fix_com': True,
              'fix_orientation': True,
              'fragment_charges': [0.0, 0.0],
              'fragment_multiplicities': [1, 1],
              'fragments': [[0, 1, 2], [3, 4, 5]],
              'geometry': [0.05118338925575477, 2.8325911243126685, 0.0, 0.05118338925575477, 0.9428649988548403, 0.0,
                           -1.7781852282291912, 3.3063793582306, 0.0, 0.05118338925575477, -2.6476146395150337, 0.0,
                           -1.585367441585863, -3.592477702243948, 0.0, 1.687734220097374, -3.592477702243947, 0.0],
              'mass_numbers': [16, 1, 1, 16, 1, 1],
              'masses': [15.99491461957, 1.00782503223, 1.00782503223, 15.99491461957, 1.00782503223, 1.00782503223],
              'molecular_charge': 0.0,
              'molecular_multiplicity': 1,
              'name': 'H4O2',
              'provenance': {'creator': 'QCElemental',
                             'routine': 'qcelemental.molparse.from_string',
                             'version': 'v0.25.0'},
              'real': [True, True, True, True, True, True],
              'schema_name': 'qcschema_molecule',
              'schema_version': 2,
              'symbols': ['O', 'H', 'H', 'O', 'H', 'H'],
              'validated': True},
 'protocols': {'stdout': True},
 'provenance': {'creator': 'QCElemental', 'routine': 'qcelemental.models.results', 'version': 'v0.25.0'},
 'schema_name': 'qcschema_input',
 'schema_version': 1}
--------------------------------------------------------------------------

Scratch directory: C:\Users\64292\AppData\Local\Temp/

*** tstart() called on Lenovo-Y540-Zoha
*** at Tue Sep 27 18:40:36 2022

   => Loading Basis Set <=

    Name: AUG-CC-PVDZ
    Role: ORBITAL
    Keyword: BASIS
    atoms 1, 4     entry O          line   254 file C:\Users\64292\Anaconda3\envs\qm-tools\lib\share\psi4\basis\aug-cc-pvdz.gbs 
    atoms 2-3, 5-6 entry H          line    40 file C:\Users\64292\Anaconda3\envs\qm-tools\lib\share\psi4\basis\aug-cc-pvdz.gbs 


         ---------------------------------------------------------
                                   SCF
               by Justin Turney, Rob Parrish, Andy Simmonett
                          and Daniel G. A. Smith
                              RHF Reference
                        1 Threads,    476 MiB Core
         ---------------------------------------------------------

  ==> Geometry <==

    Molecular point group: cs
    Full point group: Cs

    Geometry (in Bohr), charge = 0, multiplicity = 1:

       Center              X                  Y                   Z               Mass       
    ------------   -----------------  -----------------  -----------------  -----------------
         O            0.051183389256     2.832591124313     0.000000000000    15.994914619570
         H            0.051183389256     0.942864998855     0.000000000000     1.007825032230
         H           -1.778185228229     3.306379358231     0.000000000000     1.007825032230
         O            0.051183389256    -2.647614639515     0.000000000000    15.994914619570
         H           -1.585367441586    -3.592477702244     0.000000000000     1.007825032230
         H            1.687734220097    -3.592477702244     0.000000000000     1.007825032230

  Running in cs symmetry.

  Rotational constants: A =      7.04979  B =      0.21614  C =      0.20971 [cm^-1]
  Rotational constants: A = 211347.43785  B =   6479.66975  C =   6286.92000 [MHz]
  Nuclear repulsion =   35.867077293327220

  Charge       = 0
  Multiplicity = 1
  Electrons    = 20
  Nalpha       = 10
  Nbeta        = 10

  ==> Algorithm <==

  SCF Algorithm Type is DF.
  DIIS enabled.
  MOM disabled.
  Fractional occupation disabled.
  Guess Type is SAD.
  Energy threshold   = 1.00e-06
  Density threshold  = 1.00e-06
  Integral threshold = 1.00e-12

  ==> Primary Basis <==

  Basis Set: AUG-CC-PVDZ
    Blend: AUG-CC-PVDZ
    Number of shells: 38
    Number of basis functions: 82
    Number of Cartesian functions: 86
    Spherical Harmonics?: true
    Max angular momentum: 2

   => Loading Basis Set <=

    Name: (AUG-CC-PVDZ AUX)
    Role: JKFIT
    Keyword: DF_BASIS_SCF
    atoms 1, 4     entry O          line   270 file C:\Users\64292\Anaconda3\envs\qm-tools\lib\share\psi4\basis\aug-cc-pvdz-jkfit.gbs 
    atoms 2-3, 5-6 entry H          line    70 file C:\Users\64292\Anaconda3\envs\qm-tools\lib\share\psi4\basis\aug-cc-pvdz-jkfit.gbs 

  ==> Integral Setup <==

  DFHelper Memory: AOs need 0.017 GiB; user supplied 0.349 GiB. Using in-core AOs.

  ==> MemDFJK: Density-Fitted J/K Matrices <==

    J tasked:                   Yes
    K tasked:                   Yes
    wK tasked:                   No
    OpenMP threads:               1
    Memory [MiB]:               357
    Algorithm:                 Core
    Schwarz Cutoff:           1E-12
    Mask sparsity (%):       0.0000
    Fitting Condition:        1E-10

   => Auxiliary Basis Set <=

  Basis Set: (AUG-CC-PVDZ AUX)
    Blend: AUG-CC-PVDZ-JKFIT
    Number of shells: 104
    Number of basis functions: 300
    Number of Cartesian functions: 342
    Spherical Harmonics?: true
    Max angular momentum: 3

  Minimum eigenvalue in the overlap matrix is 1.7711366361E-03.
  Reciprocal condition number of the overlap matrix is 2.3710497857E-04.
    Using symmetric orthogonalization.

  ==> Pre-Iterations <==

  SCF Guess: Superposition of Atomic Densities via on-the-fly atomic UHF (no occupation information).

   -------------------------
    Irrep   Nso     Nmo    
   -------------------------
     A'        60      60 
     A"        22      22 
   -------------------------
    Total      82      82
   -------------------------

  ==> Iterations <==

                           Total Energy        Delta E     RMS |[F,P]|

   @DF-RHF iter SAD:  -150.90517955420813   -1.50905e+02   0.00000e+00 
   @DF-RHF iter   1:  -151.91312522283053   -1.00795e+00   9.61086e-03 DIIS/ADIIS
   @DF-RHF iter   2:  -152.01342672863555   -1.00302e-01   6.28339e-03 DIIS/ADIIS
   @DF-RHF iter   3:  -152.07013035619124   -5.67036e-02   5.51599e-04 DIIS/ADIIS
   @DF-RHF iter   4:  -152.07114380219932   -1.01345e-03   1.19084e-04 DIIS/ADIIS
   @DF-RHF iter   5:  -152.07120081188597   -5.70097e-05   4.29713e-05 DIIS
   @DF-RHF iter   6:  -152.07120711167065   -6.29978e-06   1.70169e-05 DIIS
   @DF-RHF iter   7:  -152.07120816301813   -1.05135e-06   3.18029e-06 DIIS
   @DF-RHF iter   8:  -152.07120822919063   -6.61725e-08   6.05316e-07 DIIS
  Energy and wave function converged.


  ==> Post-Iterations <==

    Orbital Energies [Eh]
    ---------------------

    Doubly Occupied:                                                      

       1Ap   -20.603253     2Ap   -20.545594     3Ap    -1.356867  
       4Ap    -1.300633     5Ap    -0.749750     6Ap    -0.672704  
       7Ap    -0.586117     8Ap    -0.534314     1App   -0.530942  
       2App   -0.470813  

    Virtual:                                                              

       9Ap     0.024685    10Ap     0.048653    11Ap     0.060012  
      12Ap     0.091974     3App    0.173286    13Ap     0.177402  
      14Ap     0.197645    15Ap     0.212884    16Ap     0.233456  
       4App    0.242131    17Ap     0.247722    18Ap     0.269774  
      19Ap     0.303144    20Ap     0.314865     5App    0.355951  
      21Ap     0.367619     6App    0.417927     7App    0.445507  
      22Ap     0.451172    23Ap     0.472991    24Ap     0.520889  
       8App    0.530247    25Ap     0.540729    26Ap     0.591930  
      27Ap     0.631490    28Ap     0.655003    29Ap     0.674769  
      30Ap     0.787619    31Ap     0.863615    32Ap     0.891345  
      33Ap     0.956041    34Ap     0.991380     9App    1.081005  
      10App    1.119742    11App    1.145318    35Ap     1.183841  
      36Ap     1.196044    12App    1.227801    37Ap     1.337467  
      38Ap     1.452358    13App    1.461672    39Ap     1.518737  
      40Ap     1.541311    14App    1.623453    41Ap     1.630111  
      42Ap     1.972464    43Ap     2.007744    15App    2.014600  
      16App    2.022646    44Ap     2.032792    17App    2.046592  
      18App    2.150103    45Ap     2.376463    46Ap     2.395428  
      47Ap     2.470457    48Ap     2.498656    49Ap     2.529327  
      50Ap     2.763119    51Ap     2.794820    52Ap     2.846832  
      53Ap     3.000098    54Ap     3.039772    19App    3.671753  
      20App    3.673888    21App    3.711075    55Ap     3.744821  
      22App    3.768087    56Ap     3.826171    57Ap     4.090534  
      58Ap     4.119553    59Ap     4.180270    60Ap     4.381867  

    Final Occupation by Irrep:
             Ap   App 
    DOCC [     8,    2 ]

  @DF-RHF Final Energy:  -152.07120822919063

   => Energetics <=

    Nuclear Repulsion Energy =             35.8670772933272204
    One-Electron Energy =                -281.1745825127733269
    Two-Electron Energy =                  93.2362969902554823
    Total Energy =                       -152.0712082291906313

Computation Completed


Properties will be evaluated at   0.000000,   0.000000,   0.000000 [a0]

Properties computed using the SCF density matrix


 Multipole Moments:

 ------------------------------------------------------------------------------------
     Multipole            Electronic (a.u.)      Nuclear  (a.u.)        Total (a.u.)
 ------------------------------------------------------------------------------------

 L = 1.  Multiply by 2.5417464519 to convert [e a0] to [Debye]
 Dipole X            :          0.2059201           -0.8057008           -0.5997807
 Dipole Y            :          0.0095207           -1.4558992           -1.4463784
 Dipole Z            :          0.0000000            0.0000000            0.0000000
 Magnitude           :                                                    1.5658057

 ------------------------------------------------------------------------------------

*** tstop() called on Lenovo-Y540-Zoha at Tue Sep 27 18:40:37 2022
Module time:
	user time   =        nan seconds =        nan minutes
	system time =        nan seconds =        nan minutes
	total time  =          1 seconds =       0.02 minutes
Total time:
	user time   =        nan seconds =        nan minutes
	system time =        nan seconds =        nan minutes
	total time  =        856 seconds =      14.27 minutes

    Psi4 stopped on: Tuesday, 27 September 2022 06:40PM
    Psi4 wall time for execution: 0:00:01.04


  //>>>>>>>>>>>>>>>>>>>>>>>>>>>>>>>>>>>//
  //          ManyBody Results         //
  //<<<<<<<<<<<<<<<<<<<<<<<<<<<<<<<<<<<//


   ==> N-Body: Counterpoise Corrected (CP) energies <==

        n-Body     Total Energy            Interaction Energy                          N-body Contribution to Interaction Energy
                   [Eh]                    [Eh]                  [kcal/mol]            [Eh]                  [kcal/mol]
             1  N/A                         0.000000000000        0.000000000000        0.000000000000        0.000000000000
  FULL/RTN   2  N/A                        -0.005464366038       -3.428941456863       -0.005464366038       -3.428941456863

