
Scratch directory: C:\Users\64292\AppData\Local\Temp/

  //>>>>>>>>>>>>>>>>>>>>>>>>>>>>>>>>>>>>>//
  // ManyBody Setup: N-Body Levels [1, 2]//
  //<<<<<<<<<<<<<<<<<<<<<<<<<<<<<<<<<<<<<//

        Number of 1-body computations:     2
        Number of 2-body computations:     1

    -----------------------------------------------------------------------
          Psi4: An Open-Source Ab Initio Electronic Structure Package
                               Psi4 1.6.1 release

                         Git: Rev {HEAD} 5b9f6e3 


    D. G. A. Smith, L. A. Burns, A. C. Simmonett, R. M. Parrish,
    M. C. Schieber, R. Galvelis, P. Kraus, H. Kruse, R. Di Remigio,
    A. Alenaizan, A. M. James, S. Lehtola, J. P. Misiewicz, M. Scheurer,
    R. A. Shaw, J. B. Schriber, Y. Xie, Z. L. Glick, D. A. Sirianni,
    J. S. O'Brien, J. M. Waldrop, A. Kumar, E. G. Hohenstein,
    B. P. Pritchard, B. R. Brooks, H. F. Schaefer III, A. Yu. Sokolov,
    K. Patkowski, A. E. DePrince III, U. Bozkaya, R. A. King,
    F. A. Evangelista, J. M. Turney, T. D. Crawford, C. D. Sherrill,
    J. Chem. Phys. 152(18) 184108 (2020). https://doi.org/10.1063/5.0006002

                            Additional Code Authors
    E. T. Seidl, C. L. Janssen, E. F. Valeev, M. L. Leininger,
    J. F. Gonthier, R. M. Richard, H. R. McAlexander, M. Saitow, X. Wang,
    P. Verma, M. H. Lechner, and A. Jiang

             Previous Authors, Complete List of Code Contributors,
                       and Citations for Specific Modules
    https://github.com/psi4/psi4/blob/master/codemeta.json
    https://github.com/psi4/psi4/graphs/contributors
    http://psicode.org/psi4manual/master/introduction.html#citing-psifour

    -----------------------------------------------------------------------


    Psi4 started on: Tuesday, 27 September 2022 06:25PM

    Process ID: 10544
    Host:       Lenovo-Y540-Zoha
    PSIDATADIR: C:\Users\64292\Anaconda3\envs\qm-tools\lib\share\psi4
    Memory:     476.8 MiB
    Threads:    1
    
  ==> Input QCSchema <==

--------------------------------------------------------------------------
{'driver': 'energy',
 'extras': {'psiapi': True, 'wfn_qcvars_only': True},
 'id': None,
 'keywords': {'function_kwargs': {}},
 'model': {'basis': 'aug-cc-pvdz', 'method': 'scf'},
 'molecule': {'atom_labels': ['1', '2', '3', '5', '6', '7'],
              'atomic_numbers': [8, 1, 1, 8, 1, 1],
              'fix_com': True,
              'fix_orientation': True,
              'fragment_charges': [0.0, 0.0],
              'fragment_multiplicities': [1, 1],
              'fragments': [[0, 1, 2], [3, 4, 5]],
              'geometry': [3.698572623687673e-17, -0.05118338925575477, -3.116050043131342, 3.698572623687673e-17,
                           -0.05118338925575477, -1.2263239176735146, 3.698572623687673e-17, 1.7781852282291912,
                           -3.5898382770492736, 3.698572623687673e-17, -0.05118338925575477, 2.931073558333708,
                           0.8182754154208087, 1.3661112048376158, 3.875936621062623, -0.81827541542081,
                           -1.4684779833491268, 3.875936621062622],
              'mass_numbers': [16, 1, 1, 16, 1, 1],
              'masses': [15.99491461957, 1.00782503223, 1.00782503223, 15.99491461957, 1.00782503223, 1.00782503223],
              'molecular_charge': 0.0,
              'molecular_multiplicity': 1,
              'name': 'H4O2',
              'provenance': {'creator': 'QCElemental',
                             'routine': 'qcelemental.molparse.from_string',
                             'version': 'v0.25.0'},
              'real': [False, False, False, True, True, True],
              'schema_name': 'qcschema_molecule',
              'schema_version': 2,
              'symbols': ['O', 'H', 'H', 'O', 'H', 'H'],
              'validated': True},
 'protocols': {'stdout': True},
 'provenance': {'creator': 'QCElemental', 'routine': 'qcelemental.models.results', 'version': 'v0.25.0'},
 'schema_name': 'qcschema_input',
 'schema_version': 1}
--------------------------------------------------------------------------

Scratch directory: C:\Users\64292\AppData\Local\Temp/

*** tstart() called on Lenovo-Y540-Zoha
*** at Tue Sep 27 18:46:16 2022

   => Loading Basis Set <=

    Name: AUG-CC-PVDZ
    Role: ORBITAL
    Keyword: BASIS
    atoms 1, 4     entry O          line   254 file C:\Users\64292\Anaconda3\envs\qm-tools\lib\share\psi4\basis\aug-cc-pvdz.gbs 
    atoms 2-3, 5-6 entry H          line    40 file C:\Users\64292\Anaconda3\envs\qm-tools\lib\share\psi4\basis\aug-cc-pvdz.gbs 


         ---------------------------------------------------------
                                   SCF
               by Justin Turney, Rob Parrish, Andy Simmonett
                          and Daniel G. A. Smith
                              RHF Reference
                        1 Threads,    476 MiB Core
         ---------------------------------------------------------

  ==> Geometry <==

    Molecular point group: c1
    Full point group: C1

    Geometry (in Bohr), charge = 0, multiplicity = 1:

       Center              X                  Y                   Z               Mass       
    ------------   -----------------  -----------------  -----------------  -----------------
      Gh(O)           0.000000000000    -0.051183389256    -3.116050043131    15.994914619570
      Gh(H)           0.000000000000    -0.051183389256    -1.226323917674     1.007825032230
      Gh(H)           0.000000000000     1.778185228229    -3.589838277049     1.007825032230
         O            0.000000000000    -0.051183389256     2.931073558334    15.994914619570
         H            0.818275415421     1.366111204838     3.875936621063     1.007825032230
         H           -0.818275415421    -1.468477983349     3.875936621063     1.007825032230

  Running in c1 symmetry.

  Rotational constants: A =      7.04560  B =      0.17802  C =      0.17416 [cm^-1]
  Rotational constants: A = 211221.64974  B =   5336.79879  C =   5221.24407 [MHz]
  Nuclear repulsion =    8.772355975749338

  Charge       = 0
  Multiplicity = 1
  Electrons    = 10
  Nalpha       = 5
  Nbeta        = 5

  ==> Algorithm <==

  SCF Algorithm Type is DF.
  DIIS enabled.
  MOM disabled.
  Fractional occupation disabled.
  Guess Type is SAD.
  Energy threshold   = 1.00e-06
  Density threshold  = 1.00e-06
  Integral threshold = 1.00e-12

  ==> Primary Basis <==

  Basis Set: AUG-CC-PVDZ
    Blend: AUG-CC-PVDZ
    Number of shells: 38
    Number of basis functions: 82
    Number of Cartesian functions: 86
    Spherical Harmonics?: true
    Max angular momentum: 2

   => Loading Basis Set <=

    Name: (AUG-CC-PVDZ AUX)
    Role: JKFIT
    Keyword: DF_BASIS_SCF
    atoms 1, 4     entry O          line   270 file C:\Users\64292\Anaconda3\envs\qm-tools\lib\share\psi4\basis\aug-cc-pvdz-jkfit.gbs 
    atoms 2-3, 5-6 entry H          line    70 file C:\Users\64292\Anaconda3\envs\qm-tools\lib\share\psi4\basis\aug-cc-pvdz-jkfit.gbs 

  ==> Integral Setup <==

  DFHelper Memory: AOs need 0.017 GiB; user supplied 0.349 GiB. Using in-core AOs.

  ==> MemDFJK: Density-Fitted J/K Matrices <==

    J tasked:                   Yes
    K tasked:                   Yes
    wK tasked:                   No
    OpenMP threads:               1
    Memory [MiB]:               357
    Algorithm:                 Core
    Schwarz Cutoff:           1E-12
    Mask sparsity (%):       0.0000
    Fitting Condition:        1E-10

   => Auxiliary Basis Set <=

  Basis Set: (AUG-CC-PVDZ AUX)
    Blend: AUG-CC-PVDZ-JKFIT
    Number of shells: 104
    Number of basis functions: 300
    Number of Cartesian functions: 342
    Spherical Harmonics?: true
    Max angular momentum: 3

  Minimum eigenvalue in the overlap matrix is 2.0735614299E-03.
  Reciprocal condition number of the overlap matrix is 2.9305576370E-04.
    Using symmetric orthogonalization.

  ==> Pre-Iterations <==

  SCF Guess: Superposition of Atomic Densities via on-the-fly atomic UHF (no occupation information).

   -------------------------
    Irrep   Nso     Nmo    
   -------------------------
     A         82      82 
   -------------------------
    Total      82      82
   -------------------------

  ==> Iterations <==

                           Total Energy        Delta E     RMS |[F,P]|

   @DF-RHF iter SAD:   -75.40236281426364   -7.54024e+01   0.00000e+00 
   @DF-RHF iter   1:   -75.94509457808107   -5.42732e-01   5.50831e-03 DIIS/ADIIS
   @DF-RHF iter   2:   -75.99627824088465   -5.11837e-02   3.73008e-03 DIIS/ADIIS
   @DF-RHF iter   3:   -76.02936981475780   -3.30916e-02   2.79169e-04 DIIS/ADIIS
   @DF-RHF iter   4:   -76.02984084045173   -4.71026e-04   6.67504e-05 DIIS
   @DF-RHF iter   5:   -76.02987343712419   -3.25967e-05   1.62931e-05 DIIS
   @DF-RHF iter   6:   -76.02987651108553   -3.07396e-06   3.49647e-06 DIIS
   @DF-RHF iter   7:   -76.02987666600413   -1.54919e-07   6.42253e-07 DIIS
  Energy and wave function converged.


  ==> Post-Iterations <==

    Orbital Energies [Eh]
    ---------------------

    Doubly Occupied:                                                      

       1A    -20.575764     2A     -1.325836     3A     -0.721194  
       4A     -0.548247     5A     -0.500692  

    Virtual:                                                              

       6A      0.032662     7A      0.052851     8A      0.056053  
       9A      0.083772    10A      0.159284    11A      0.171621  
      12A      0.181598    13A      0.197787    14A      0.215101  
      15A      0.221729    16A      0.239475    17A      0.250692  
      18A      0.309973    19A      0.328753    20A      0.371608  
      21A      0.404067    22A      0.440586    23A      0.452481  
      24A      0.459508    25A      0.486016    26A      0.516826  
      27A      0.529947    28A      0.544076    29A      0.568144  
      30A      0.618722    31A      0.642640    32A      0.662281  
      33A      0.710997    34A      0.872811    35A      0.878161  
      36A      0.926801    37A      0.936977    38A      1.114416  
      39A      1.145315    40A      1.147552    41A      1.209281  
      42A      1.238233    43A      1.284822    44A      1.335715  
      45A      1.364257    46A      1.397185    47A      1.424338  
      48A      1.458745    49A      1.535400    50A      1.574701  
      51A      1.850310    52A      1.995693    53A      2.047357  
      54A      2.055476    55A      2.084780    56A      2.281382  
      57A      2.370289    58A      2.415713    59A      2.443168  
      60A      2.466475    61A      2.528306    62A      2.583089  
      63A      2.685838    64A      2.824255    65A      2.921360  
      66A      3.424587    67A      3.688670    68A      3.700917  
      69A      3.806894    70A      3.908727    71A      4.077330  
      72A      4.143858    73A      4.186160    74A      4.910349  
      75A      4.956455    76A      4.993436    77A      5.178269  
      78A      5.485166    79A      5.646930    80A      6.417130  
      81A      6.848640    82A     33.567819  

    Final Occupation by Irrep:
              A 
    DOCC [     5 ]

  @DF-RHF Final Energy:   -76.02987666600413

   => Energetics <=

    Nuclear Repulsion Energy =              8.7723559757493383
    One-Electron Energy =                -122.2609642830440748
    Two-Electron Energy =                  37.4587316412906048
    Total Energy =                        -76.0298766660041281

Computation Completed


Properties will be evaluated at   0.000000,   0.000000,   0.000000 [a0]

Properties computed using the SCF density matrix


 Multipole Moments:

 ------------------------------------------------------------------------------------
     Multipole            Electronic (a.u.)      Nuclear  (a.u.)        Total (a.u.)
 ------------------------------------------------------------------------------------

 L = 1.  Multiply by 2.5417464519 to convert [e a0] to [Debye]
 Dipole X            :          0.0001144           -0.0000000            0.0001144
 Dipole Y            :          0.5116510           -0.5118339           -0.0001829
 Dipole Z            :        -30.5141474           31.2004617            0.6863143
 Magnitude           :                                                    0.6863144

 ------------------------------------------------------------------------------------

*** tstop() called on Lenovo-Y540-Zoha at Tue Sep 27 18:46:17 2022
Module time:
	user time   =        nan seconds =        nan minutes
	system time =        nan seconds =        nan minutes
	total time  =          1 seconds =       0.02 minutes
Total time:
	user time   =        nan seconds =        nan minutes
	system time =        nan seconds =        nan minutes
	total time  =       1196 seconds =      19.93 minutes

    Psi4 stopped on: Tuesday, 27 September 2022 06:46PM
    Psi4 wall time for execution: 0:00:01.04


    -----------------------------------------------------------------------
          Psi4: An Open-Source Ab Initio Electronic Structure Package
                               Psi4 1.6.1 release

                         Git: Rev {HEAD} 5b9f6e3 


    D. G. A. Smith, L. A. Burns, A. C. Simmonett, R. M. Parrish,
    M. C. Schieber, R. Galvelis, P. Kraus, H. Kruse, R. Di Remigio,
    A. Alenaizan, A. M. James, S. Lehtola, J. P. Misiewicz, M. Scheurer,
    R. A. Shaw, J. B. Schriber, Y. Xie, Z. L. Glick, D. A. Sirianni,
    J. S. O'Brien, J. M. Waldrop, A. Kumar, E. G. Hohenstein,
    B. P. Pritchard, B. R. Brooks, H. F. Schaefer III, A. Yu. Sokolov,
    K. Patkowski, A. E. DePrince III, U. Bozkaya, R. A. King,
    F. A. Evangelista, J. M. Turney, T. D. Crawford, C. D. Sherrill,
    J. Chem. Phys. 152(18) 184108 (2020). https://doi.org/10.1063/5.0006002

                            Additional Code Authors
    E. T. Seidl, C. L. Janssen, E. F. Valeev, M. L. Leininger,
    J. F. Gonthier, R. M. Richard, H. R. McAlexander, M. Saitow, X. Wang,
    P. Verma, M. H. Lechner, and A. Jiang

             Previous Authors, Complete List of Code Contributors,
                       and Citations for Specific Modules
    https://github.com/psi4/psi4/blob/master/codemeta.json
    https://github.com/psi4/psi4/graphs/contributors
    http://psicode.org/psi4manual/master/introduction.html#citing-psifour

    -----------------------------------------------------------------------


    Psi4 started on: Tuesday, 27 September 2022 06:25PM

    Process ID: 10544
    Host:       Lenovo-Y540-Zoha
    PSIDATADIR: C:\Users\64292\Anaconda3\envs\qm-tools\lib\share\psi4
    Memory:     476.8 MiB
    Threads:    1
    
  ==> Input QCSchema <==

--------------------------------------------------------------------------
{'driver': 'energy',
 'extras': {'psiapi': True, 'wfn_qcvars_only': True},
 'id': None,
 'keywords': {'function_kwargs': {}},
 'model': {'basis': 'aug-cc-pvdz', 'method': 'scf'},
 'molecule': {'atom_labels': ['1', '2', '3', '5', '6', '7'],
              'atomic_numbers': [8, 1, 1, 8, 1, 1],
              'fix_com': True,
              'fix_orientation': True,
              'fragment_charges': [0.0, 0.0],
              'fragment_multiplicities': [1, 1],
              'fragments': [[0, 1, 2], [3, 4, 5]],
              'geometry': [3.698572623687673e-17, -0.05118338925575477, -3.116050043131342, 3.698572623687673e-17,
                           -0.05118338925575477, -1.2263239176735146, 3.698572623687673e-17, 1.7781852282291912,
                           -3.5898382770492736, 3.698572623687673e-17, -0.05118338925575477, 2.931073558333708,
                           0.8182754154208087, 1.3661112048376158, 3.875936621062623, -0.81827541542081,
                           -1.4684779833491268, 3.875936621062622],
              'mass_numbers': [16, 1, 1, 16, 1, 1],
              'masses': [15.99491461957, 1.00782503223, 1.00782503223, 15.99491461957, 1.00782503223, 1.00782503223],
              'molecular_charge': 0.0,
              'molecular_multiplicity': 1,
              'name': 'H4O2',
              'provenance': {'creator': 'QCElemental',
                             'routine': 'qcelemental.molparse.from_string',
                             'version': 'v0.25.0'},
              'real': [True, True, True, False, False, False],
              'schema_name': 'qcschema_molecule',
              'schema_version': 2,
              'symbols': ['O', 'H', 'H', 'O', 'H', 'H'],
              'validated': True},
 'protocols': {'stdout': True},
 'provenance': {'creator': 'QCElemental', 'routine': 'qcelemental.models.results', 'version': 'v0.25.0'},
 'schema_name': 'qcschema_input',
 'schema_version': 1}
--------------------------------------------------------------------------

Scratch directory: C:\Users\64292\AppData\Local\Temp/

*** tstart() called on Lenovo-Y540-Zoha
*** at Tue Sep 27 18:46:17 2022

   => Loading Basis Set <=

    Name: AUG-CC-PVDZ
    Role: ORBITAL
    Keyword: BASIS
    atoms 1, 4     entry O          line   254 file C:\Users\64292\Anaconda3\envs\qm-tools\lib\share\psi4\basis\aug-cc-pvdz.gbs 
    atoms 2-3, 5-6 entry H          line    40 file C:\Users\64292\Anaconda3\envs\qm-tools\lib\share\psi4\basis\aug-cc-pvdz.gbs 


         ---------------------------------------------------------
                                   SCF
               by Justin Turney, Rob Parrish, Andy Simmonett
                          and Daniel G. A. Smith
                              RHF Reference
                        1 Threads,    476 MiB Core
         ---------------------------------------------------------

  ==> Geometry <==

    Molecular point group: c1
    Full point group: C1

    Geometry (in Bohr), charge = 0, multiplicity = 1:

       Center              X                  Y                   Z               Mass       
    ------------   -----------------  -----------------  -----------------  -----------------
         O            0.000000000000    -0.051183389256    -3.116050043131    15.994914619570
         H            0.000000000000    -0.051183389256    -1.226323917674     1.007825032230
         H            0.000000000000     1.778185228229    -3.589838277049     1.007825032230
      Gh(O)           0.000000000000    -0.051183389256     2.931073558334    15.994914619570
      Gh(H)           0.818275415421     1.366111204838     3.875936621063     1.007825032230
      Gh(H)          -0.818275415421    -1.468477983349     3.875936621063     1.007825032230

  Running in c1 symmetry.

  Rotational constants: A =      7.04560  B =      0.17802  C =      0.17416 [cm^-1]
  Rotational constants: A = 211221.64974  B =   5336.79879  C =   5221.24407 [MHz]
  Nuclear repulsion =    8.801420354575152

  Charge       = 0
  Multiplicity = 1
  Electrons    = 10
  Nalpha       = 5
  Nbeta        = 5

  ==> Algorithm <==

  SCF Algorithm Type is DF.
  DIIS enabled.
  MOM disabled.
  Fractional occupation disabled.
  Guess Type is SAD.
  Energy threshold   = 1.00e-06
  Density threshold  = 1.00e-06
  Integral threshold = 1.00e-12

  ==> Primary Basis <==

  Basis Set: AUG-CC-PVDZ
    Blend: AUG-CC-PVDZ
    Number of shells: 38
    Number of basis functions: 82
    Number of Cartesian functions: 86
    Spherical Harmonics?: true
    Max angular momentum: 2

   => Loading Basis Set <=

    Name: (AUG-CC-PVDZ AUX)
    Role: JKFIT
    Keyword: DF_BASIS_SCF
    atoms 1, 4     entry O          line   270 file C:\Users\64292\Anaconda3\envs\qm-tools\lib\share\psi4\basis\aug-cc-pvdz-jkfit.gbs 
    atoms 2-3, 5-6 entry H          line    70 file C:\Users\64292\Anaconda3\envs\qm-tools\lib\share\psi4\basis\aug-cc-pvdz-jkfit.gbs 

  ==> Integral Setup <==

  DFHelper Memory: AOs need 0.017 GiB; user supplied 0.349 GiB. Using in-core AOs.

  ==> MemDFJK: Density-Fitted J/K Matrices <==

    J tasked:                   Yes
    K tasked:                   Yes
    wK tasked:                   No
    OpenMP threads:               1
    Memory [MiB]:               357
    Algorithm:                 Core
    Schwarz Cutoff:           1E-12
    Mask sparsity (%):       0.0000
    Fitting Condition:        1E-10

   => Auxiliary Basis Set <=

  Basis Set: (AUG-CC-PVDZ AUX)
    Blend: AUG-CC-PVDZ-JKFIT
    Number of shells: 104
    Number of basis functions: 300
    Number of Cartesian functions: 342
    Spherical Harmonics?: true
    Max angular momentum: 3

  Minimum eigenvalue in the overlap matrix is 2.0735614299E-03.
  Reciprocal condition number of the overlap matrix is 2.9305576370E-04.
    Using symmetric orthogonalization.

  ==> Pre-Iterations <==

  SCF Guess: Superposition of Atomic Densities via on-the-fly atomic UHF (no occupation information).

   -------------------------
    Irrep   Nso     Nmo    
   -------------------------
     A         82      82 
   -------------------------
    Total      82      82
   -------------------------

  ==> Iterations <==

                           Total Energy        Delta E     RMS |[F,P]|

   @DF-RHF iter SAD:   -75.41487090618708   -7.54149e+01   0.00000e+00 
   @DF-RHF iter   1:   -75.94941316842494   -5.34542e-01   5.50539e-03 DIIS/ADIIS
   @DF-RHF iter   2:   -76.00129112330492   -5.18780e-02   3.77470e-03 DIIS/ADIIS
   @DF-RHF iter   3:   -76.03524399838203   -3.39529e-02   2.81173e-04 DIIS/ADIIS
   @DF-RHF iter   4:   -76.03569753892168   -4.53541e-04   6.60384e-05 DIIS
   @DF-RHF iter   5:   -76.03572769855634   -3.01596e-05   1.56316e-05 DIIS
   @DF-RHF iter   6:   -76.03573026990581   -2.57135e-06   3.09189e-06 DIIS
   @DF-RHF iter   7:   -76.03573037328377   -1.03378e-07   5.04814e-07 DIIS
  Energy and wave function converged.


  ==> Post-Iterations <==

    Orbital Energies [Eh]
    ---------------------

    Doubly Occupied:                                                      

       1A    -20.584248     2A     -1.335642     3A     -0.696503  
       4A     -0.577376     5A     -0.506074  

    Virtual:                                                              

       6A      0.024585     7A      0.049062     8A      0.058696  
       9A      0.081245    10A      0.135756    11A      0.144844  
      12A      0.178685    13A      0.193331    14A      0.218759  
      15A      0.224972    16A      0.228211    17A      0.267406  
      18A      0.321446    19A      0.353826    20A      0.370201  
      21A      0.400964    22A      0.405270    23A      0.413176  
      24A      0.428571    25A      0.464779    26A      0.477809  
      27A      0.489762    28A      0.502127    29A      0.540868  
      30A      0.581120    31A      0.621863    32A      0.649303  
      33A      0.755171    34A      0.826878    35A      0.904252  
      36A      0.949951    37A      1.031916    38A      1.107051  
      39A      1.143123    40A      1.166830    41A      1.194502  
      42A      1.205089    43A      1.275908    44A      1.294128  
      45A      1.307943    46A      1.333741    47A      1.348041  
      48A      1.420428    49A      1.499792    50A      1.545746  
      51A      1.710135    52A      1.989572    53A      1.993405  
      54A      2.053415    55A      2.086500    56A      2.314997  
      57A      2.362793    58A      2.380949    59A      2.390455  
      60A      2.426307    61A      2.452050    62A      2.582440  
      63A      2.731533    64A      2.875120    65A      2.985410  
      66A      3.388920    67A      3.674755    68A      3.704900  
      69A      3.720755    70A      3.921767    71A      3.950738  
      72A      4.047038    73A      4.264950    74A      4.881204  
      75A      4.940622    76A      5.036808    77A      5.324620  
      78A      5.327864    79A      5.579584    80A      6.308057  
      81A      6.811441    82A     33.526969  

    Final Occupation by Irrep:
              A 
    DOCC [     5 ]

  @DF-RHF Final Energy:   -76.03573037328377

   => Energetics <=

    Nuclear Repulsion Energy =              8.8014203545751517
    One-Electron Energy =                -122.2745954401924848
    Two-Electron Energy =                  37.4374447123335585
    Total Energy =                        -76.0357303732837693

Computation Completed


Properties will be evaluated at   0.000000,   0.000000,   0.000000 [a0]

Properties computed using the SCF density matrix


 Multipole Moments:

 ------------------------------------------------------------------------------------
     Multipole            Electronic (a.u.)      Nuclear  (a.u.)        Total (a.u.)
 ------------------------------------------------------------------------------------

 L = 1.  Multiply by 2.5417464519 to convert [e a0] to [Debye]
 Dipole X            :          0.0000770            0.0000000            0.0000770
 Dipole Y            :         -0.6853409            1.3175347            0.6321939
 Dipole Z            :         30.2337914          -29.7445625            0.4892288
 Magnitude           :                                                    0.7993835

 ------------------------------------------------------------------------------------

*** tstop() called on Lenovo-Y540-Zoha at Tue Sep 27 18:46:18 2022
Module time:
	user time   =        nan seconds =        nan minutes
	system time =        nan seconds =        nan minutes
	total time  =          1 seconds =       0.02 minutes
Total time:
	user time   =        nan seconds =        nan minutes
	system time =        nan seconds =        nan minutes
	total time  =       1197 seconds =      19.95 minutes

    Psi4 stopped on: Tuesday, 27 September 2022 06:46PM
    Psi4 wall time for execution: 0:00:01.03


    -----------------------------------------------------------------------
          Psi4: An Open-Source Ab Initio Electronic Structure Package
                               Psi4 1.6.1 release

                         Git: Rev {HEAD} 5b9f6e3 


    D. G. A. Smith, L. A. Burns, A. C. Simmonett, R. M. Parrish,
    M. C. Schieber, R. Galvelis, P. Kraus, H. Kruse, R. Di Remigio,
    A. Alenaizan, A. M. James, S. Lehtola, J. P. Misiewicz, M. Scheurer,
    R. A. Shaw, J. B. Schriber, Y. Xie, Z. L. Glick, D. A. Sirianni,
    J. S. O'Brien, J. M. Waldrop, A. Kumar, E. G. Hohenstein,
    B. P. Pritchard, B. R. Brooks, H. F. Schaefer III, A. Yu. Sokolov,
    K. Patkowski, A. E. DePrince III, U. Bozkaya, R. A. King,
    F. A. Evangelista, J. M. Turney, T. D. Crawford, C. D. Sherrill,
    J. Chem. Phys. 152(18) 184108 (2020). https://doi.org/10.1063/5.0006002

                            Additional Code Authors
    E. T. Seidl, C. L. Janssen, E. F. Valeev, M. L. Leininger,
    J. F. Gonthier, R. M. Richard, H. R. McAlexander, M. Saitow, X. Wang,
    P. Verma, M. H. Lechner, and A. Jiang

             Previous Authors, Complete List of Code Contributors,
                       and Citations for Specific Modules
    https://github.com/psi4/psi4/blob/master/codemeta.json
    https://github.com/psi4/psi4/graphs/contributors
    http://psicode.org/psi4manual/master/introduction.html#citing-psifour

    -----------------------------------------------------------------------


    Psi4 started on: Tuesday, 27 September 2022 06:25PM

    Process ID: 10544
    Host:       Lenovo-Y540-Zoha
    PSIDATADIR: C:\Users\64292\Anaconda3\envs\qm-tools\lib\share\psi4
    Memory:     476.8 MiB
    Threads:    1
    
  ==> Input QCSchema <==

--------------------------------------------------------------------------
{'driver': 'energy',
 'extras': {'psiapi': True, 'wfn_qcvars_only': True},
 'id': None,
 'keywords': {'function_kwargs': {}},
 'model': {'basis': 'aug-cc-pvdz', 'method': 'scf'},
 'molecule': {'atom_labels': ['1', '2', '3', '5', '6', '7'],
              'atomic_numbers': [8, 1, 1, 8, 1, 1],
              'fix_com': True,
              'fix_orientation': True,
              'fragment_charges': [0.0, 0.0],
              'fragment_multiplicities': [1, 1],
              'fragments': [[0, 1, 2], [3, 4, 5]],
              'geometry': [3.698572623687673e-17, -0.05118338925575477, -3.116050043131342, 3.698572623687673e-17,
                           -0.05118338925575477, -1.2263239176735146, 3.698572623687673e-17, 1.7781852282291912,
                           -3.5898382770492736, 3.698572623687673e-17, -0.05118338925575477, 2.931073558333708,
                           0.8182754154208087, 1.3661112048376158, 3.875936621062623, -0.81827541542081,
                           -1.4684779833491268, 3.875936621062622],
              'mass_numbers': [16, 1, 1, 16, 1, 1],
              'masses': [15.99491461957, 1.00782503223, 1.00782503223, 15.99491461957, 1.00782503223, 1.00782503223],
              'molecular_charge': 0.0,
              'molecular_multiplicity': 1,
              'name': 'H4O2',
              'provenance': {'creator': 'QCElemental',
                             'routine': 'qcelemental.molparse.from_string',
                             'version': 'v0.25.0'},
              'real': [True, True, True, True, True, True],
              'schema_name': 'qcschema_molecule',
              'schema_version': 2,
              'symbols': ['O', 'H', 'H', 'O', 'H', 'H'],
              'validated': True},
 'protocols': {'stdout': True},
 'provenance': {'creator': 'QCElemental', 'routine': 'qcelemental.models.results', 'version': 'v0.25.0'},
 'schema_name': 'qcschema_input',
 'schema_version': 1}
--------------------------------------------------------------------------

Scratch directory: C:\Users\64292\AppData\Local\Temp/

*** tstart() called on Lenovo-Y540-Zoha
*** at Tue Sep 27 18:46:18 2022

   => Loading Basis Set <=

    Name: AUG-CC-PVDZ
    Role: ORBITAL
    Keyword: BASIS
    atoms 1, 4     entry O          line   254 file C:\Users\64292\Anaconda3\envs\qm-tools\lib\share\psi4\basis\aug-cc-pvdz.gbs 
    atoms 2-3, 5-6 entry H          line    40 file C:\Users\64292\Anaconda3\envs\qm-tools\lib\share\psi4\basis\aug-cc-pvdz.gbs 


         ---------------------------------------------------------
                                   SCF
               by Justin Turney, Rob Parrish, Andy Simmonett
                          and Daniel G. A. Smith
                              RHF Reference
                        1 Threads,    476 MiB Core
         ---------------------------------------------------------

  ==> Geometry <==

    Molecular point group: c1
    Full point group: C1

    Geometry (in Bohr), charge = 0, multiplicity = 1:

       Center              X                  Y                   Z               Mass       
    ------------   -----------------  -----------------  -----------------  -----------------
         O            0.000000000000    -0.051183389256    -3.116050043131    15.994914619570
         H            0.000000000000    -0.051183389256    -1.226323917674     1.007825032230
         H            0.000000000000     1.778185228229    -3.589838277049     1.007825032230
         O            0.000000000000    -0.051183389256     2.931073558334    15.994914619570
         H            0.818275415421     1.366111204838     3.875936621063     1.007825032230
         H           -0.818275415421    -1.468477983349     3.875936621063     1.007825032230

  Running in c1 symmetry.

  Rotational constants: A =      7.04560  B =      0.17802  C =      0.17416 [cm^-1]
  Rotational constants: A = 211221.64974  B =   5336.79879  C =   5221.24407 [MHz]
  Nuclear repulsion =   34.119353004532663

  Charge       = 0
  Multiplicity = 1
  Electrons    = 20
  Nalpha       = 10
  Nbeta        = 10

  ==> Algorithm <==

  SCF Algorithm Type is DF.
  DIIS enabled.
  MOM disabled.
  Fractional occupation disabled.
  Guess Type is SAD.
  Energy threshold   = 1.00e-06
  Density threshold  = 1.00e-06
  Integral threshold = 1.00e-12

  ==> Primary Basis <==

  Basis Set: AUG-CC-PVDZ
    Blend: AUG-CC-PVDZ
    Number of shells: 38
    Number of basis functions: 82
    Number of Cartesian functions: 86
    Spherical Harmonics?: true
    Max angular momentum: 2

   => Loading Basis Set <=

    Name: (AUG-CC-PVDZ AUX)
    Role: JKFIT
    Keyword: DF_BASIS_SCF
    atoms 1, 4     entry O          line   270 file C:\Users\64292\Anaconda3\envs\qm-tools\lib\share\psi4\basis\aug-cc-pvdz-jkfit.gbs 
    atoms 2-3, 5-6 entry H          line    70 file C:\Users\64292\Anaconda3\envs\qm-tools\lib\share\psi4\basis\aug-cc-pvdz-jkfit.gbs 

  ==> Integral Setup <==

  DFHelper Memory: AOs need 0.017 GiB; user supplied 0.349 GiB. Using in-core AOs.

  ==> MemDFJK: Density-Fitted J/K Matrices <==

    J tasked:                   Yes
    K tasked:                   Yes
    wK tasked:                   No
    OpenMP threads:               1
    Memory [MiB]:               357
    Algorithm:                 Core
    Schwarz Cutoff:           1E-12
    Mask sparsity (%):       0.0000
    Fitting Condition:        1E-10

   => Auxiliary Basis Set <=

  Basis Set: (AUG-CC-PVDZ AUX)
    Blend: AUG-CC-PVDZ-JKFIT
    Number of shells: 104
    Number of basis functions: 300
    Number of Cartesian functions: 342
    Spherical Harmonics?: true
    Max angular momentum: 3

  Minimum eigenvalue in the overlap matrix is 2.0735614299E-03.
  Reciprocal condition number of the overlap matrix is 2.9305576370E-04.
    Using symmetric orthogonalization.

  ==> Pre-Iterations <==

  SCF Guess: Superposition of Atomic Densities via on-the-fly atomic UHF (no occupation information).

   -------------------------
    Irrep   Nso     Nmo    
   -------------------------
     A         82      82 
   -------------------------
    Total      82      82
   -------------------------

  ==> Iterations <==

                           Total Energy        Delta E     RMS |[F,P]|

   @DF-RHF iter SAD:  -150.86140018860658   -1.50861e+02   0.00000e+00 
   @DF-RHF iter   1:  -151.91073176822616   -1.04933e+00   7.57187e-03 DIIS/ADIIS
   @DF-RHF iter   2:  -152.01082918394835   -1.00097e-01   5.01765e-03 DIIS/ADIIS
   @DF-RHF iter   3:  -152.07048865585432   -5.96595e-02   4.08839e-04 DIIS/ADIIS
   @DF-RHF iter   4:  -152.07143968253064   -9.51027e-04   8.99823e-05 DIIS
   @DF-RHF iter   5:  -152.07149648534386   -5.68028e-05   2.62796e-05 DIIS
   @DF-RHF iter   6:  -152.07150183048620   -5.34514e-06   1.20040e-05 DIIS
   @DF-RHF iter   7:  -152.07150252303825   -6.92552e-07   2.61162e-06 DIIS
   @DF-RHF iter   8:  -152.07150259116256   -6.81243e-08   4.50378e-07 DIIS
  Energy and wave function converged.


  ==> Post-Iterations <==

    Orbital Energies [Eh]
    ---------------------

    Doubly Occupied:                                                      

       1A    -20.597168     2A    -20.556078     3A     -1.348594  
       4A     -1.309167     5A     -0.742822     6A     -0.673030  
       7A     -0.578842     8A     -0.546318     9A     -0.523345  
      10A     -0.479801  

    Virtual:                                                              

      11A      0.026027    12A      0.049462    13A      0.057817  
      14A      0.090027    15A      0.174682    16A      0.180982  
      17A      0.195783    18A      0.213494    19A      0.232367  
      20A      0.235133    21A      0.246915    22A      0.269714  
      23A      0.299681    24A      0.308326    25A      0.351323  
      26A      0.364889    27A      0.407163    28A      0.424011  
      29A      0.437456    30A      0.463528    31A      0.517981  
      32A      0.532924    33A      0.534359    34A      0.583460  
      35A      0.629842    36A      0.652671    37A      0.667020  
      38A      0.777787    39A      0.851800    40A      0.866473  
      41A      0.919417    42A      0.987798    43A      1.067002  
      44A      1.126294    45A      1.137959    46A      1.171705  
      47A      1.196893    48A      1.222422    49A      1.330814  
      50A      1.429088    51A      1.461276    52A      1.500033  
      53A      1.525107    54A      1.585552    55A      1.613832  
      56A      1.930230    57A      1.959804    58A      2.016948  
      59A      2.023469    60A      2.029950    61A      2.043826  
      62A      2.117907    63A      2.342453    64A      2.379136  
      65A      2.437249    66A      2.475770    67A      2.510828  
      68A      2.698624    69A      2.752861    70A      2.783836  
      71A      2.945512    72A      3.016031    73A      3.649304  
      74A      3.678942    75A      3.703057    76A      3.734498  
      77A      3.757036    78A      3.761097    79A      4.064150  
      80A      4.121796    81A      4.170975    82A      4.317627  

    Final Occupation by Irrep:
              A 
    DOCC [    10 ]

  @DF-RHF Final Energy:  -152.07150259116256

   => Energetics <=

    Nuclear Repulsion Energy =             34.1193530045326625
    One-Electron Energy =                -277.6713567268218981
    Two-Electron Energy =                  91.4805011311266867
    Total Energy =                       -152.0715025911625560

Computation Completed


Properties will be evaluated at   0.000000,   0.000000,   0.000000 [a0]

Properties computed using the SCF density matrix


 Multipole Moments:

 ------------------------------------------------------------------------------------
     Multipole            Electronic (a.u.)      Nuclear  (a.u.)        Total (a.u.)
 ------------------------------------------------------------------------------------

 L = 1.  Multiply by 2.5417464519 to convert [e a0] to [Debye]
 Dipole X            :         -0.0010592           -0.0000000           -0.0010592
 Dipole Y            :         -0.1962899            0.8057008            0.6094109
 Dipole Z            :         -0.0942677            1.4558992            1.3616315
 Magnitude           :                                                    1.4917852

 ------------------------------------------------------------------------------------

*** tstop() called on Lenovo-Y540-Zoha at Tue Sep 27 18:46:19 2022
Module time:
	user time   =        nan seconds =        nan minutes
	system time =        nan seconds =        nan minutes
	total time  =          1 seconds =       0.02 minutes
Total time:
	user time   =        nan seconds =        nan minutes
	system time =        nan seconds =        nan minutes
	total time  =       1198 seconds =      19.97 minutes

    Psi4 stopped on: Tuesday, 27 September 2022 06:46PM
    Psi4 wall time for execution: 0:00:01.04


  //>>>>>>>>>>>>>>>>>>>>>>>>>>>>>>>>>>>//
  //          ManyBody Results         //
  //<<<<<<<<<<<<<<<<<<<<<<<<<<<<<<<<<<<//


   ==> N-Body: Counterpoise Corrected (CP) energies <==

        n-Body     Total Energy            Interaction Energy                          N-body Contribution to Interaction Energy
                   [Eh]                    [Eh]                  [kcal/mol]            [Eh]                  [kcal/mol]
             1  N/A                         0.000000000000        0.000000000000        0.000000000000        0.000000000000
  FULL/RTN   2  N/A                        -0.005895551875       -3.699514654495       -0.005895551875       -3.699514654495

