
Scratch directory: C:\Users\64292\AppData\Local\Temp/

  //>>>>>>>>>>>>>>>>>>>>>>>>>>>>>>>>>>>>>//
  // ManyBody Setup: N-Body Levels [1, 2]//
  //<<<<<<<<<<<<<<<<<<<<<<<<<<<<<<<<<<<<<//

        Number of 1-body computations:     2
        Number of 2-body computations:     1

    -----------------------------------------------------------------------
          Psi4: An Open-Source Ab Initio Electronic Structure Package
                               Psi4 1.6.1 release

                         Git: Rev {HEAD} 5b9f6e3 


    D. G. A. Smith, L. A. Burns, A. C. Simmonett, R. M. Parrish,
    M. C. Schieber, R. Galvelis, P. Kraus, H. Kruse, R. Di Remigio,
    A. Alenaizan, A. M. James, S. Lehtola, J. P. Misiewicz, M. Scheurer,
    R. A. Shaw, J. B. Schriber, Y. Xie, Z. L. Glick, D. A. Sirianni,
    J. S. O'Brien, J. M. Waldrop, A. Kumar, E. G. Hohenstein,
    B. P. Pritchard, B. R. Brooks, H. F. Schaefer III, A. Yu. Sokolov,
    K. Patkowski, A. E. DePrince III, U. Bozkaya, R. A. King,
    F. A. Evangelista, J. M. Turney, T. D. Crawford, C. D. Sherrill,
    J. Chem. Phys. 152(18) 184108 (2020). https://doi.org/10.1063/5.0006002

                            Additional Code Authors
    E. T. Seidl, C. L. Janssen, E. F. Valeev, M. L. Leininger,
    J. F. Gonthier, R. M. Richard, H. R. McAlexander, M. Saitow, X. Wang,
    P. Verma, M. H. Lechner, and A. Jiang

             Previous Authors, Complete List of Code Contributors,
                       and Citations for Specific Modules
    https://github.com/psi4/psi4/blob/master/codemeta.json
    https://github.com/psi4/psi4/graphs/contributors
    http://psicode.org/psi4manual/master/introduction.html#citing-psifour

    -----------------------------------------------------------------------


    Psi4 started on: Tuesday, 27 September 2022 06:25PM

    Process ID: 10544
    Host:       Lenovo-Y540-Zoha
    PSIDATADIR: C:\Users\64292\Anaconda3\envs\qm-tools\lib\share\psi4
    Memory:     476.8 MiB
    Threads:    1
    
  ==> Input QCSchema <==

--------------------------------------------------------------------------
{'driver': 'energy',
 'extras': {'psiapi': True, 'wfn_qcvars_only': True},
 'id': None,
 'keywords': {'function_kwargs': {}},
 'model': {'basis': 'aug-cc-pvdz', 'method': 'scf'},
 'molecule': {'atom_labels': ['1', '2', '3', '5', '6', '7'],
              'atomic_numbers': [8, 1, 1, 8, 1, 1],
              'fix_com': True,
              'fix_orientation': True,
              'fragment_charges': [0.0, 0.0],
              'fragment_multiplicities': [1, 1],
              'fragments': [[0, 1, 2], [3, 4, 5]],
              'geometry': [0.05118338925575477, 2.927077430585559, 0.0, 0.05118338925575477, 1.0373513051277308, 0.0,
                           -1.7781852282291912, 3.4008656645034905, 0.0, 0.05118338925575477, -2.742100945787925, 0.0,
                           -1.585367441585863, -3.6869640085168394, 0.0, 1.687734220097374, -3.6869640085168385, 0.0],
              'mass_numbers': [16, 1, 1, 16, 1, 1],
              'masses': [15.99491461957, 1.00782503223, 1.00782503223, 15.99491461957, 1.00782503223, 1.00782503223],
              'molecular_charge': 0.0,
              'molecular_multiplicity': 1,
              'name': 'H4O2',
              'provenance': {'creator': 'QCElemental',
                             'routine': 'qcelemental.molparse.from_string',
                             'version': 'v0.25.0'},
              'real': [False, False, False, True, True, True],
              'schema_name': 'qcschema_molecule',
              'schema_version': 2,
              'symbols': ['O', 'H', 'H', 'O', 'H', 'H'],
              'validated': True},
 'protocols': {'stdout': True},
 'provenance': {'creator': 'QCElemental', 'routine': 'qcelemental.models.results', 'version': 'v0.25.0'},
 'schema_name': 'qcschema_input',
 'schema_version': 1}
--------------------------------------------------------------------------

Scratch directory: C:\Users\64292\AppData\Local\Temp/

*** tstart() called on Lenovo-Y540-Zoha
*** at Tue Sep 27 18:43:26 2022

   => Loading Basis Set <=

    Name: AUG-CC-PVDZ
    Role: ORBITAL
    Keyword: BASIS
    atoms 1, 4     entry O          line   254 file C:\Users\64292\Anaconda3\envs\qm-tools\lib\share\psi4\basis\aug-cc-pvdz.gbs 
    atoms 2-3, 5-6 entry H          line    40 file C:\Users\64292\Anaconda3\envs\qm-tools\lib\share\psi4\basis\aug-cc-pvdz.gbs 


         ---------------------------------------------------------
                                   SCF
               by Justin Turney, Rob Parrish, Andy Simmonett
                          and Daniel G. A. Smith
                              RHF Reference
                        1 Threads,    476 MiB Core
         ---------------------------------------------------------

  ==> Geometry <==

    Molecular point group: cs
    Full point group: Cs

    Geometry (in Bohr), charge = 0, multiplicity = 1:

       Center              X                  Y                   Z               Mass       
    ------------   -----------------  -----------------  -----------------  -----------------
      Gh(O)           0.051183389256     2.927077430586     0.000000000000    15.994914619570
      Gh(H)           0.051183389256     1.037351305128     0.000000000000     1.007825032230
      Gh(H)          -1.778185228229     3.400865664503     0.000000000000     1.007825032230
         O            0.051183389256    -2.742100945788     0.000000000000    15.994914619570
         H           -1.585367441586    -3.686964008517     0.000000000000     1.007825032230
         H            1.687734220097    -3.686964008517     0.000000000000     1.007825032230

  Running in cs symmetry.

  Rotational constants: A =      7.04845  B =      0.20229  C =      0.19665 [cm^-1]
  Rotational constants: A = 211307.11189  B =   6064.60941  C =   5895.40853 [MHz]
  Nuclear repulsion =    8.772355975749340

  Charge       = 0
  Multiplicity = 1
  Electrons    = 10
  Nalpha       = 5
  Nbeta        = 5

  ==> Algorithm <==

  SCF Algorithm Type is DF.
  DIIS enabled.
  MOM disabled.
  Fractional occupation disabled.
  Guess Type is SAD.
  Energy threshold   = 1.00e-06
  Density threshold  = 1.00e-06
  Integral threshold = 1.00e-12

  ==> Primary Basis <==

  Basis Set: AUG-CC-PVDZ
    Blend: AUG-CC-PVDZ
    Number of shells: 38
    Number of basis functions: 82
    Number of Cartesian functions: 86
    Spherical Harmonics?: true
    Max angular momentum: 2

   => Loading Basis Set <=

    Name: (AUG-CC-PVDZ AUX)
    Role: JKFIT
    Keyword: DF_BASIS_SCF
    atoms 1, 4     entry O          line   270 file C:\Users\64292\Anaconda3\envs\qm-tools\lib\share\psi4\basis\aug-cc-pvdz-jkfit.gbs 
    atoms 2-3, 5-6 entry H          line    70 file C:\Users\64292\Anaconda3\envs\qm-tools\lib\share\psi4\basis\aug-cc-pvdz-jkfit.gbs 

  ==> Integral Setup <==

  DFHelper Memory: AOs need 0.017 GiB; user supplied 0.349 GiB. Using in-core AOs.

  ==> MemDFJK: Density-Fitted J/K Matrices <==

    J tasked:                   Yes
    K tasked:                   Yes
    wK tasked:                   No
    OpenMP threads:               1
    Memory [MiB]:               357
    Algorithm:                 Core
    Schwarz Cutoff:           1E-12
    Mask sparsity (%):       0.0000
    Fitting Condition:        1E-10

   => Auxiliary Basis Set <=

  Basis Set: (AUG-CC-PVDZ AUX)
    Blend: AUG-CC-PVDZ-JKFIT
    Number of shells: 104
    Number of basis functions: 300
    Number of Cartesian functions: 342
    Spherical Harmonics?: true
    Max angular momentum: 3

  Minimum eigenvalue in the overlap matrix is 1.8491944848E-03.
  Reciprocal condition number of the overlap matrix is 2.5218425495E-04.
    Using symmetric orthogonalization.

  ==> Pre-Iterations <==

  SCF Guess: Superposition of Atomic Densities via on-the-fly atomic UHF (no occupation information).

   -------------------------
    Irrep   Nso     Nmo    
   -------------------------
     A'        60      60 
     A"        22      22 
   -------------------------
    Total      82      82
   -------------------------

  ==> Iterations <==

                           Total Energy        Delta E     RMS |[F,P]|

   @DF-RHF iter SAD:   -75.40236273155861   -7.54024e+01   0.00000e+00 
   @DF-RHF iter   1:   -75.94515465148885   -5.42792e-01   7.06934e-03 DIIS/ADIIS
   @DF-RHF iter   2:   -75.99634857872863   -5.11939e-02   4.78811e-03 DIIS/ADIIS
   @DF-RHF iter   3:   -76.02943337716323   -3.30848e-02   3.65403e-04 DIIS/ADIIS
   @DF-RHF iter   4:   -76.02991224948266   -4.78872e-04   8.55754e-05 DIIS
   @DF-RHF iter   5:   -76.02994484637199   -3.25969e-05   2.09260e-05 DIIS
   @DF-RHF iter   6:   -76.02994792741332   -3.08104e-06   4.48829e-06 DIIS
   @DF-RHF iter   7:   -76.02994808251151   -1.55098e-07   8.24918e-07 DIIS
  Energy and wave function converged.


  ==> Post-Iterations <==

    Orbital Energies [Eh]
    ---------------------

    Doubly Occupied:                                                      

       1Ap   -20.575802     2Ap    -1.325809     3Ap    -0.721163  
       4Ap    -0.548226     1App   -0.500636  

    Virtual:                                                              

       5Ap     0.032564     6Ap     0.053050     7Ap     0.056464  
       8Ap     0.085960     2App    0.157639     9Ap     0.174132  
      10Ap     0.182131    11Ap     0.198104    12Ap     0.218919  
       3App    0.220170    13Ap     0.242111    14Ap     0.250272  
      15Ap     0.313237    16Ap     0.328795     4App    0.372589  
      17Ap     0.406192     5App    0.450149     6App    0.458113  
      18Ap     0.465085    19Ap     0.487115    20Ap     0.521928  
       7App    0.537636    21Ap     0.539522    22Ap     0.572228  
      23Ap     0.635390    24Ap     0.645014    25Ap     0.667973  
      26Ap     0.726636    27Ap     0.878283    28Ap     0.904633  
       8App    0.927745    29Ap     0.953486     9App    1.127826  
      10App    1.146355    30Ap     1.148714    31Ap     1.216275  
      32Ap     1.231714    33Ap     1.292615    11App    1.339240  
      34Ap     1.388861    12App    1.405099    35Ap     1.439226  
      36Ap     1.481456    13App    1.558087    37Ap     1.586277  
      38Ap     1.784003    39Ap     2.016304    14App    2.047800  
      15App    2.054183    40Ap     2.148814    41Ap     2.344346  
      16App    2.377177    42Ap     2.424638    43Ap     2.453960  
      17App    2.475764    44Ap     2.539696    45Ap     2.627543  
      46Ap     2.705865    47Ap     2.890705    48Ap     2.944637  
      49Ap     3.436356    18App    3.700929    19App    3.704216  
      50Ap     3.845089    51Ap     3.921206    52Ap     4.086719  
      53Ap     4.145970    54Ap     4.197543    20App    4.912812  
      55Ap     4.959758    21App    4.996345    56Ap     5.201536  
      57Ap     5.496799    22App    5.655518    58Ap     6.463789  
      59Ap     6.892568    60Ap    33.572194  

    Final Occupation by Irrep:
             Ap   App 
    DOCC [     4,    1 ]

  @DF-RHF Final Energy:   -76.02994808251151

   => Energetics <=

    Nuclear Repulsion Energy =              8.7723559757493401
    One-Electron Energy =                -122.2612984739312907
    Two-Electron Energy =                  37.4589944156704462
    Total Energy =                        -76.0299480825115097

Computation Completed


Properties will be evaluated at   0.000000,   0.000000,   0.000000 [a0]

Properties computed using the SCF density matrix


 Multipole Moments:

 ------------------------------------------------------------------------------------
     Multipole            Electronic (a.u.)      Nuclear  (a.u.)        Total (a.u.)
 ------------------------------------------------------------------------------------

 L = 1.  Multiply by 2.5417464519 to convert [e a0] to [Debye]
 Dipole X            :         -0.5116499            0.5118339            0.0001840
 Dipole Y            :         28.6255012          -29.3107356           -0.6852344
 Dipole Z            :          0.0000000            0.0000000            0.0000000
 Magnitude           :                                                    0.6852345

 ------------------------------------------------------------------------------------

*** tstop() called on Lenovo-Y540-Zoha at Tue Sep 27 18:43:26 2022
Module time:
	user time   =        nan seconds =        nan minutes
	system time =        nan seconds =        nan minutes
	total time  =          0 seconds =       0.00 minutes
Total time:
	user time   =        nan seconds =        nan minutes
	system time =        nan seconds =        nan minutes
	total time  =       1025 seconds =      17.08 minutes

    Psi4 stopped on: Tuesday, 27 September 2022 06:43PM
    Psi4 wall time for execution: 0:00:01.00


    -----------------------------------------------------------------------
          Psi4: An Open-Source Ab Initio Electronic Structure Package
                               Psi4 1.6.1 release

                         Git: Rev {HEAD} 5b9f6e3 


    D. G. A. Smith, L. A. Burns, A. C. Simmonett, R. M. Parrish,
    M. C. Schieber, R. Galvelis, P. Kraus, H. Kruse, R. Di Remigio,
    A. Alenaizan, A. M. James, S. Lehtola, J. P. Misiewicz, M. Scheurer,
    R. A. Shaw, J. B. Schriber, Y. Xie, Z. L. Glick, D. A. Sirianni,
    J. S. O'Brien, J. M. Waldrop, A. Kumar, E. G. Hohenstein,
    B. P. Pritchard, B. R. Brooks, H. F. Schaefer III, A. Yu. Sokolov,
    K. Patkowski, A. E. DePrince III, U. Bozkaya, R. A. King,
    F. A. Evangelista, J. M. Turney, T. D. Crawford, C. D. Sherrill,
    J. Chem. Phys. 152(18) 184108 (2020). https://doi.org/10.1063/5.0006002

                            Additional Code Authors
    E. T. Seidl, C. L. Janssen, E. F. Valeev, M. L. Leininger,
    J. F. Gonthier, R. M. Richard, H. R. McAlexander, M. Saitow, X. Wang,
    P. Verma, M. H. Lechner, and A. Jiang

             Previous Authors, Complete List of Code Contributors,
                       and Citations for Specific Modules
    https://github.com/psi4/psi4/blob/master/codemeta.json
    https://github.com/psi4/psi4/graphs/contributors
    http://psicode.org/psi4manual/master/introduction.html#citing-psifour

    -----------------------------------------------------------------------


    Psi4 started on: Tuesday, 27 September 2022 06:25PM

    Process ID: 10544
    Host:       Lenovo-Y540-Zoha
    PSIDATADIR: C:\Users\64292\Anaconda3\envs\qm-tools\lib\share\psi4
    Memory:     476.8 MiB
    Threads:    1
    
  ==> Input QCSchema <==

--------------------------------------------------------------------------
{'driver': 'energy',
 'extras': {'psiapi': True, 'wfn_qcvars_only': True},
 'id': None,
 'keywords': {'function_kwargs': {}},
 'model': {'basis': 'aug-cc-pvdz', 'method': 'scf'},
 'molecule': {'atom_labels': ['1', '2', '3', '5', '6', '7'],
              'atomic_numbers': [8, 1, 1, 8, 1, 1],
              'fix_com': True,
              'fix_orientation': True,
              'fragment_charges': [0.0, 0.0],
              'fragment_multiplicities': [1, 1],
              'fragments': [[0, 1, 2], [3, 4, 5]],
              'geometry': [0.05118338925575477, 2.927077430585559, 0.0, 0.05118338925575477, 1.0373513051277308, 0.0,
                           -1.7781852282291912, 3.4008656645034905, 0.0, 0.05118338925575477, -2.742100945787925, 0.0,
                           -1.585367441585863, -3.6869640085168394, 0.0, 1.687734220097374, -3.6869640085168385, 0.0],
              'mass_numbers': [16, 1, 1, 16, 1, 1],
              'masses': [15.99491461957, 1.00782503223, 1.00782503223, 15.99491461957, 1.00782503223, 1.00782503223],
              'molecular_charge': 0.0,
              'molecular_multiplicity': 1,
              'name': 'H4O2',
              'provenance': {'creator': 'QCElemental',
                             'routine': 'qcelemental.molparse.from_string',
                             'version': 'v0.25.0'},
              'real': [True, True, True, False, False, False],
              'schema_name': 'qcschema_molecule',
              'schema_version': 2,
              'symbols': ['O', 'H', 'H', 'O', 'H', 'H'],
              'validated': True},
 'protocols': {'stdout': True},
 'provenance': {'creator': 'QCElemental', 'routine': 'qcelemental.models.results', 'version': 'v0.25.0'},
 'schema_name': 'qcschema_input',
 'schema_version': 1}
--------------------------------------------------------------------------

Scratch directory: C:\Users\64292\AppData\Local\Temp/

*** tstart() called on Lenovo-Y540-Zoha
*** at Tue Sep 27 18:43:27 2022

   => Loading Basis Set <=

    Name: AUG-CC-PVDZ
    Role: ORBITAL
    Keyword: BASIS
    atoms 1, 4     entry O          line   254 file C:\Users\64292\Anaconda3\envs\qm-tools\lib\share\psi4\basis\aug-cc-pvdz.gbs 
    atoms 2-3, 5-6 entry H          line    40 file C:\Users\64292\Anaconda3\envs\qm-tools\lib\share\psi4\basis\aug-cc-pvdz.gbs 


         ---------------------------------------------------------
                                   SCF
               by Justin Turney, Rob Parrish, Andy Simmonett
                          and Daniel G. A. Smith
                              RHF Reference
                        1 Threads,    476 MiB Core
         ---------------------------------------------------------

  ==> Geometry <==

    Molecular point group: cs
    Full point group: Cs

    Geometry (in Bohr), charge = 0, multiplicity = 1:

       Center              X                  Y                   Z               Mass       
    ------------   -----------------  -----------------  -----------------  -----------------
         O            0.051183389256     2.927077430586     0.000000000000    15.994914619570
         H            0.051183389256     1.037351305128     0.000000000000     1.007825032230
         H           -1.778185228229     3.400865664503     0.000000000000     1.007825032230
      Gh(O)           0.051183389256    -2.742100945788     0.000000000000    15.994914619570
      Gh(H)          -1.585367441586    -3.686964008517     0.000000000000     1.007825032230
      Gh(H)           1.687734220097    -3.686964008517     0.000000000000     1.007825032230

  Running in cs symmetry.

  Rotational constants: A =      7.04845  B =      0.20229  C =      0.19665 [cm^-1]
  Rotational constants: A = 211307.11189  B =   6064.60941  C =   5895.40853 [MHz]
  Nuclear repulsion =    8.801420354575150

  Charge       = 0
  Multiplicity = 1
  Electrons    = 10
  Nalpha       = 5
  Nbeta        = 5

  ==> Algorithm <==

  SCF Algorithm Type is DF.
  DIIS enabled.
  MOM disabled.
  Fractional occupation disabled.
  Guess Type is SAD.
  Energy threshold   = 1.00e-06
  Density threshold  = 1.00e-06
  Integral threshold = 1.00e-12

  ==> Primary Basis <==

  Basis Set: AUG-CC-PVDZ
    Blend: AUG-CC-PVDZ
    Number of shells: 38
    Number of basis functions: 82
    Number of Cartesian functions: 86
    Spherical Harmonics?: true
    Max angular momentum: 2

   => Loading Basis Set <=

    Name: (AUG-CC-PVDZ AUX)
    Role: JKFIT
    Keyword: DF_BASIS_SCF
    atoms 1, 4     entry O          line   270 file C:\Users\64292\Anaconda3\envs\qm-tools\lib\share\psi4\basis\aug-cc-pvdz-jkfit.gbs 
    atoms 2-3, 5-6 entry H          line    70 file C:\Users\64292\Anaconda3\envs\qm-tools\lib\share\psi4\basis\aug-cc-pvdz-jkfit.gbs 

  ==> Integral Setup <==

  DFHelper Memory: AOs need 0.017 GiB; user supplied 0.349 GiB. Using in-core AOs.

  ==> MemDFJK: Density-Fitted J/K Matrices <==

    J tasked:                   Yes
    K tasked:                   Yes
    wK tasked:                   No
    OpenMP threads:               1
    Memory [MiB]:               357
    Algorithm:                 Core
    Schwarz Cutoff:           1E-12
    Mask sparsity (%):       0.0000
    Fitting Condition:        1E-10

   => Auxiliary Basis Set <=

  Basis Set: (AUG-CC-PVDZ AUX)
    Blend: AUG-CC-PVDZ-JKFIT
    Number of shells: 104
    Number of basis functions: 300
    Number of Cartesian functions: 342
    Spherical Harmonics?: true
    Max angular momentum: 3

  Minimum eigenvalue in the overlap matrix is 1.8491944848E-03.
  Reciprocal condition number of the overlap matrix is 2.5218425495E-04.
    Using symmetric orthogonalization.

  ==> Pre-Iterations <==

  SCF Guess: Superposition of Atomic Densities via on-the-fly atomic UHF (no occupation information).

   -------------------------
    Irrep   Nso     Nmo    
   -------------------------
     A'        60      60 
     A"        22      22 
   -------------------------
    Total      82      82
   -------------------------

  ==> Iterations <==

                           Total Energy        Delta E     RMS |[F,P]|

   @DF-RHF iter SAD:   -75.41487087303933   -7.54149e+01   0.00000e+00 
   @DF-RHF iter   1:   -75.94941811718517   -5.34547e-01   7.06496e-03 DIIS/ADIIS
   @DF-RHF iter   2:   -76.00129896503393   -5.18808e-02   4.84452e-03 DIIS/ADIIS
   @DF-RHF iter   3:   -76.03524706122988   -3.39481e-02   3.67627e-04 DIIS/ADIIS
   @DF-RHF iter   4:   -76.03570830087243   -4.61240e-04   8.46456e-05 DIIS
   @DF-RHF iter   5:   -76.03573845868296   -3.01578e-05   2.00866e-05 DIIS
   @DF-RHF iter   6:   -76.03574103883960   -2.58016e-06   3.96895e-06 DIIS
   @DF-RHF iter   7:   -76.03574114232435   -1.03485e-07   6.47394e-07 DIIS
  Energy and wave function converged.


  ==> Post-Iterations <==

    Orbital Energies [Eh]
    ---------------------

    Doubly Occupied:                                                      

       1Ap   -20.584242     2Ap    -1.335641     3Ap    -0.696500  
       4Ap    -0.577368     1App   -0.506063  

    Virtual:                                                              

       5Ap     0.024684     6Ap     0.049259     7Ap     0.059294  
       8Ap     0.083700     2App    0.137751     9Ap     0.141263  
      10Ap     0.179538    11Ap     0.196007     3App    0.221239  
      12Ap     0.227503    13Ap     0.228082    14Ap     0.270393  
      15Ap     0.325222    16Ap     0.352861    17Ap     0.381912  
       4App    0.394315    18Ap     0.400423     5App    0.419832  
       6App    0.443813    19Ap     0.470261    20Ap     0.477121  
       7App    0.484783    21Ap     0.494459    22Ap     0.555225  
      23Ap     0.585592    24Ap     0.640654    25Ap     0.651747  
      26Ap     0.777641    27Ap     0.844766     8App    0.917794  
      28Ap     0.951173    29Ap     1.039493     9App    1.109507  
      30Ap     1.149090    10App    1.176080    31Ap     1.182378  
      32Ap     1.206319    33Ap     1.282765    11App    1.292477  
      34Ap     1.306049    12App    1.330747    35Ap     1.378015  
      36Ap     1.435396    37Ap     1.512606    13App    1.561157  
      38Ap     1.745450    39Ap     1.993816    14App    1.998975  
      40Ap     2.046986    15App    2.099461    41Ap     2.298787  
      42Ap     2.364065    16App    2.378984    17App    2.389958  
      43Ap     2.444049    44Ap     2.518347    45Ap     2.591191  
      46Ap     2.733750    47Ap     2.936579    48Ap     2.990113  
      49Ap     3.418884    18App    3.675278    50Ap     3.710766  
      19App    3.721919    51Ap     3.955223    52Ap     3.975780  
      53Ap     4.072901    54Ap     4.292869    20App    4.892730  
      21App    4.936739    55Ap     5.063042    56Ap     5.326187  
      57Ap     5.359399    22App    5.585168    58Ap     6.366604  
      59Ap     6.808666    60Ap    33.527465  

    Final Occupation by Irrep:
             Ap   App 
    DOCC [     4,    1 ]

  @DF-RHF Final Energy:   -76.03574114232435

   => Energetics <=

    Nuclear Repulsion Energy =              8.8014203545751499
    One-Electron Energy =                -122.2746748872557703
    Two-Electron Energy =                  37.4375133903562443
    Total Energy =                        -76.0357411423243690

Computation Completed


Properties will be evaluated at   0.000000,   0.000000,   0.000000 [a0]

Properties computed using the SCF density matrix


 Multipole Moments:

 ------------------------------------------------------------------------------------
     Multipole            Electronic (a.u.)      Nuclear  (a.u.)        Total (a.u.)
 ------------------------------------------------------------------------------------

 L = 1.  Multiply by 2.5417464519 to convert [e a0] to [Debye]
 Dipole X            :          0.6853964           -1.3175347           -0.6321383
 Dipole Y            :        -28.3439930           27.8548364           -0.4891565
 Dipole Z            :          0.0000000            0.0000000            0.0000000
 Magnitude           :                                                    0.7992953

 ------------------------------------------------------------------------------------

*** tstop() called on Lenovo-Y540-Zoha at Tue Sep 27 18:43:28 2022
Module time:
	user time   =        nan seconds =        nan minutes
	system time =        nan seconds =        nan minutes
	total time  =          1 seconds =       0.02 minutes
Total time:
	user time   =        nan seconds =        nan minutes
	system time =        nan seconds =        nan minutes
	total time  =       1027 seconds =      17.12 minutes

    Psi4 stopped on: Tuesday, 27 September 2022 06:43PM
    Psi4 wall time for execution: 0:00:01.05


    -----------------------------------------------------------------------
          Psi4: An Open-Source Ab Initio Electronic Structure Package
                               Psi4 1.6.1 release

                         Git: Rev {HEAD} 5b9f6e3 


    D. G. A. Smith, L. A. Burns, A. C. Simmonett, R. M. Parrish,
    M. C. Schieber, R. Galvelis, P. Kraus, H. Kruse, R. Di Remigio,
    A. Alenaizan, A. M. James, S. Lehtola, J. P. Misiewicz, M. Scheurer,
    R. A. Shaw, J. B. Schriber, Y. Xie, Z. L. Glick, D. A. Sirianni,
    J. S. O'Brien, J. M. Waldrop, A. Kumar, E. G. Hohenstein,
    B. P. Pritchard, B. R. Brooks, H. F. Schaefer III, A. Yu. Sokolov,
    K. Patkowski, A. E. DePrince III, U. Bozkaya, R. A. King,
    F. A. Evangelista, J. M. Turney, T. D. Crawford, C. D. Sherrill,
    J. Chem. Phys. 152(18) 184108 (2020). https://doi.org/10.1063/5.0006002

                            Additional Code Authors
    E. T. Seidl, C. L. Janssen, E. F. Valeev, M. L. Leininger,
    J. F. Gonthier, R. M. Richard, H. R. McAlexander, M. Saitow, X. Wang,
    P. Verma, M. H. Lechner, and A. Jiang

             Previous Authors, Complete List of Code Contributors,
                       and Citations for Specific Modules
    https://github.com/psi4/psi4/blob/master/codemeta.json
    https://github.com/psi4/psi4/graphs/contributors
    http://psicode.org/psi4manual/master/introduction.html#citing-psifour

    -----------------------------------------------------------------------


    Psi4 started on: Tuesday, 27 September 2022 06:25PM

    Process ID: 10544
    Host:       Lenovo-Y540-Zoha
    PSIDATADIR: C:\Users\64292\Anaconda3\envs\qm-tools\lib\share\psi4
    Memory:     476.8 MiB
    Threads:    1
    
  ==> Input QCSchema <==

--------------------------------------------------------------------------
{'driver': 'energy',
 'extras': {'psiapi': True, 'wfn_qcvars_only': True},
 'id': None,
 'keywords': {'function_kwargs': {}},
 'model': {'basis': 'aug-cc-pvdz', 'method': 'scf'},
 'molecule': {'atom_labels': ['1', '2', '3', '5', '6', '7'],
              'atomic_numbers': [8, 1, 1, 8, 1, 1],
              'fix_com': True,
              'fix_orientation': True,
              'fragment_charges': [0.0, 0.0],
              'fragment_multiplicities': [1, 1],
              'fragments': [[0, 1, 2], [3, 4, 5]],
              'geometry': [0.05118338925575477, 2.927077430585559, 0.0, 0.05118338925575477, 1.0373513051277308, 0.0,
                           -1.7781852282291912, 3.4008656645034905, 0.0, 0.05118338925575477, -2.742100945787925, 0.0,
                           -1.585367441585863, -3.6869640085168394, 0.0, 1.687734220097374, -3.6869640085168385, 0.0],
              'mass_numbers': [16, 1, 1, 16, 1, 1],
              'masses': [15.99491461957, 1.00782503223, 1.00782503223, 15.99491461957, 1.00782503223, 1.00782503223],
              'molecular_charge': 0.0,
              'molecular_multiplicity': 1,
              'name': 'H4O2',
              'provenance': {'creator': 'QCElemental',
                             'routine': 'qcelemental.molparse.from_string',
                             'version': 'v0.25.0'},
              'real': [True, True, True, True, True, True],
              'schema_name': 'qcschema_molecule',
              'schema_version': 2,
              'symbols': ['O', 'H', 'H', 'O', 'H', 'H'],
              'validated': True},
 'protocols': {'stdout': True},
 'provenance': {'creator': 'QCElemental', 'routine': 'qcelemental.models.results', 'version': 'v0.25.0'},
 'schema_name': 'qcschema_input',
 'schema_version': 1}
--------------------------------------------------------------------------

Scratch directory: C:\Users\64292\AppData\Local\Temp/

*** tstart() called on Lenovo-Y540-Zoha
*** at Tue Sep 27 18:43:28 2022

   => Loading Basis Set <=

    Name: AUG-CC-PVDZ
    Role: ORBITAL
    Keyword: BASIS
    atoms 1, 4     entry O          line   254 file C:\Users\64292\Anaconda3\envs\qm-tools\lib\share\psi4\basis\aug-cc-pvdz.gbs 
    atoms 2-3, 5-6 entry H          line    40 file C:\Users\64292\Anaconda3\envs\qm-tools\lib\share\psi4\basis\aug-cc-pvdz.gbs 


         ---------------------------------------------------------
                                   SCF
               by Justin Turney, Rob Parrish, Andy Simmonett
                          and Daniel G. A. Smith
                              RHF Reference
                        1 Threads,    476 MiB Core
         ---------------------------------------------------------

  ==> Geometry <==

    Molecular point group: cs
    Full point group: Cs

    Geometry (in Bohr), charge = 0, multiplicity = 1:

       Center              X                  Y                   Z               Mass       
    ------------   -----------------  -----------------  -----------------  -----------------
         O            0.051183389256     2.927077430586     0.000000000000    15.994914619570
         H            0.051183389256     1.037351305128     0.000000000000     1.007825032230
         H           -1.778185228229     3.400865664503     0.000000000000     1.007825032230
         O            0.051183389256    -2.742100945788     0.000000000000    15.994914619570
         H           -1.585367441586    -3.686964008517     0.000000000000     1.007825032230
         H            1.687734220097    -3.686964008517     0.000000000000     1.007825032230

  Running in cs symmetry.

  Rotational constants: A =      7.04845  B =      0.20229  C =      0.19665 [cm^-1]
  Rotational constants: A = 211307.11189  B =   6064.60941  C =   5895.40853 [MHz]
  Nuclear repulsion =   35.243809682597146

  Charge       = 0
  Multiplicity = 1
  Electrons    = 20
  Nalpha       = 10
  Nbeta        = 10

  ==> Algorithm <==

  SCF Algorithm Type is DF.
  DIIS enabled.
  MOM disabled.
  Fractional occupation disabled.
  Guess Type is SAD.
  Energy threshold   = 1.00e-06
  Density threshold  = 1.00e-06
  Integral threshold = 1.00e-12

  ==> Primary Basis <==

  Basis Set: AUG-CC-PVDZ
    Blend: AUG-CC-PVDZ
    Number of shells: 38
    Number of basis functions: 82
    Number of Cartesian functions: 86
    Spherical Harmonics?: true
    Max angular momentum: 2

   => Loading Basis Set <=

    Name: (AUG-CC-PVDZ AUX)
    Role: JKFIT
    Keyword: DF_BASIS_SCF
    atoms 1, 4     entry O          line   270 file C:\Users\64292\Anaconda3\envs\qm-tools\lib\share\psi4\basis\aug-cc-pvdz-jkfit.gbs 
    atoms 2-3, 5-6 entry H          line    70 file C:\Users\64292\Anaconda3\envs\qm-tools\lib\share\psi4\basis\aug-cc-pvdz-jkfit.gbs 

  ==> Integral Setup <==

  DFHelper Memory: AOs need 0.017 GiB; user supplied 0.349 GiB. Using in-core AOs.

  ==> MemDFJK: Density-Fitted J/K Matrices <==

    J tasked:                   Yes
    K tasked:                   Yes
    wK tasked:                   No
    OpenMP threads:               1
    Memory [MiB]:               357
    Algorithm:                 Core
    Schwarz Cutoff:           1E-12
    Mask sparsity (%):       0.0000
    Fitting Condition:        1E-10

   => Auxiliary Basis Set <=

  Basis Set: (AUG-CC-PVDZ AUX)
    Blend: AUG-CC-PVDZ-JKFIT
    Number of shells: 104
    Number of basis functions: 300
    Number of Cartesian functions: 342
    Spherical Harmonics?: true
    Max angular momentum: 3

  Minimum eigenvalue in the overlap matrix is 1.8491944848E-03.
  Reciprocal condition number of the overlap matrix is 2.5218425495E-04.
    Using symmetric orthogonalization.

  ==> Pre-Iterations <==

  SCF Guess: Superposition of Atomic Densities via on-the-fly atomic UHF (no occupation information).

   -------------------------
    Irrep   Nso     Nmo    
   -------------------------
     A'        60      60 
     A"        22      22 
   -------------------------
    Total      82      82
   -------------------------

  ==> Iterations <==

                           Total Energy        Delta E     RMS |[F,P]|

   @DF-RHF iter SAD:  -150.88717138007388   -1.50887e+02   0.00000e+00 
   @DF-RHF iter   1:  -151.91268347411670   -1.02551e+00   9.64522e-03 DIIS/ADIIS
   @DF-RHF iter   2:  -152.01280194690528   -1.00118e-01   6.33571e-03 DIIS/ADIIS
   @DF-RHF iter   3:  -152.07048540160469   -5.76835e-02   5.47615e-04 DIIS/ADIIS
   @DF-RHF iter   4:  -152.07148506848159   -9.99667e-04   1.16986e-04 DIIS/ADIIS
   @DF-RHF iter   5:  -152.07154187078712   -5.68023e-05   3.87925e-05 DIIS
   @DF-RHF iter   6:  -152.07154765240691   -5.78162e-06   1.69063e-05 DIIS
   @DF-RHF iter   7:  -152.07154858509682   -9.32690e-07   3.22887e-06 DIIS
   @DF-RHF iter   8:  -152.07154865189096   -6.67941e-08   5.94198e-07 DIIS
  Energy and wave function converged.


  ==> Post-Iterations <==

    Orbital Energies [Eh]
    ---------------------

    Doubly Occupied:                                                      

       1Ap   -20.600984     2Ap   -20.549698     3Ap    -1.353607  
       4Ap    -1.303907     5Ap    -0.747105     6Ap    -0.672055  
       7Ap    -0.583931     8Ap    -0.538990     1App   -0.528023  
       2App   -0.474259  

    Virtual:                                                              

       9Ap     0.025143    10Ap     0.048804    11Ap     0.059408  
      12Ap     0.091621     3App    0.173707    13Ap     0.178369  
      14Ap     0.196632    15Ap     0.213204    16Ap     0.233310  
       4App    0.240866    17Ap     0.247227    18Ap     0.268265  
      19Ap     0.302288    20Ap     0.312820     5App    0.357464  
      21Ap     0.365350     6App    0.415226    22Ap     0.441594  
       7App    0.443227    23Ap     0.465312    24Ap     0.523412  
       8App    0.527435    25Ap     0.538154    26Ap     0.588380  
      27Ap     0.631358    28Ap     0.656055    29Ap     0.672224  
      30Ap     0.784392    31Ap     0.862000    32Ap     0.885465  
      33Ap     0.948119    34Ap     0.998110     9App    1.068207  
      10App    1.122293    11App    1.143320    35Ap     1.178891  
      36Ap     1.187618    12App    1.228669    37Ap     1.330774  
      38Ap     1.444619    13App    1.461411    39Ap     1.513731  
      40Ap     1.537992    14App    1.609843    41Ap     1.621218  
      42Ap     1.968641    43Ap     1.991302    15App    2.015442  
      16App    2.025310    44Ap     2.027410    17App    2.041000  
      18App    2.135270    45Ap     2.362947    46Ap     2.382273  
      47Ap     2.459419    48Ap     2.493597    49Ap     2.515214  
      50Ap     2.747359    51Ap     2.764060    52Ap     2.823448  
      53Ap     2.980723    54Ap     3.030935    19App    3.661748  
      20App    3.674541    21App    3.708430    55Ap     3.741064  
      22App    3.766931    56Ap     3.802511    57Ap     4.082621  
      58Ap     4.120445    59Ap     4.178506    60Ap     4.363880  

    Final Occupation by Irrep:
             Ap   App 
    DOCC [     8,    2 ]

  @DF-RHF Final Energy:  -152.07154865189096

   => Energetics <=

    Nuclear Repulsion Energy =             35.2438096825971456
    One-Electron Energy =                -279.9255812156694674
    Two-Electron Energy =                  92.6102228811813433
    Total Energy =                       -152.0715486518909643

Computation Completed


Properties will be evaluated at   0.000000,   0.000000,   0.000000 [a0]

Properties computed using the SCF density matrix


 Multipole Moments:

 ------------------------------------------------------------------------------------
     Multipole            Electronic (a.u.)      Nuclear  (a.u.)        Total (a.u.)
 ------------------------------------------------------------------------------------

 L = 1.  Multiply by 2.5417464519 to convert [e a0] to [Debye]
 Dipole X            :          0.2025624           -0.8057008           -0.6031385
 Dipole Y            :          0.0425260           -1.4558992           -1.4133732
 Dipole Z            :          0.0000000            0.0000000            0.0000000
 Magnitude           :                                                    1.5366847

 ------------------------------------------------------------------------------------

*** tstop() called on Lenovo-Y540-Zoha at Tue Sep 27 18:43:29 2022
Module time:
	user time   =        nan seconds =        nan minutes
	system time =        nan seconds =        nan minutes
	total time  =          1 seconds =       0.02 minutes
Total time:
	user time   =        nan seconds =        nan minutes
	system time =        nan seconds =        nan minutes
	total time  =       1028 seconds =      17.13 minutes

    Psi4 stopped on: Tuesday, 27 September 2022 06:43PM
    Psi4 wall time for execution: 0:00:01.17


  //>>>>>>>>>>>>>>>>>>>>>>>>>>>>>>>>>>>//
  //          ManyBody Results         //
  //<<<<<<<<<<<<<<<<<<<<<<<<<<<<<<<<<<<//


   ==> N-Body: Counterpoise Corrected (CP) energies <==

        n-Body     Total Energy            Interaction Energy                          N-body Contribution to Interaction Energy
                   [Eh]                    [Eh]                  [kcal/mol]            [Eh]                  [kcal/mol]
             1  N/A                         0.000000000000        0.000000000000        0.000000000000        0.000000000000
  FULL/RTN   2  N/A                        -0.005859427055       -3.676845987984       -0.005859427055       -3.676845987984

