
Scratch directory: C:\Users\64292\AppData\Local\Temp/

  //>>>>>>>>>>>>>>>>>>>>>>>>>>>>>>>>>>>>>//
  // ManyBody Setup: N-Body Levels [1, 2]//
  //<<<<<<<<<<<<<<<<<<<<<<<<<<<<<<<<<<<<<//

        Number of 1-body computations:     2
        Number of 2-body computations:     1

    -----------------------------------------------------------------------
          Psi4: An Open-Source Ab Initio Electronic Structure Package
                               Psi4 1.6.1 release

                         Git: Rev {HEAD} 5b9f6e3 


    D. G. A. Smith, L. A. Burns, A. C. Simmonett, R. M. Parrish,
    M. C. Schieber, R. Galvelis, P. Kraus, H. Kruse, R. Di Remigio,
    A. Alenaizan, A. M. James, S. Lehtola, J. P. Misiewicz, M. Scheurer,
    R. A. Shaw, J. B. Schriber, Y. Xie, Z. L. Glick, D. A. Sirianni,
    J. S. O'Brien, J. M. Waldrop, A. Kumar, E. G. Hohenstein,
    B. P. Pritchard, B. R. Brooks, H. F. Schaefer III, A. Yu. Sokolov,
    K. Patkowski, A. E. DePrince III, U. Bozkaya, R. A. King,
    F. A. Evangelista, J. M. Turney, T. D. Crawford, C. D. Sherrill,
    J. Chem. Phys. 152(18) 184108 (2020). https://doi.org/10.1063/5.0006002

                            Additional Code Authors
    E. T. Seidl, C. L. Janssen, E. F. Valeev, M. L. Leininger,
    J. F. Gonthier, R. M. Richard, H. R. McAlexander, M. Saitow, X. Wang,
    P. Verma, M. H. Lechner, and A. Jiang

             Previous Authors, Complete List of Code Contributors,
                       and Citations for Specific Modules
    https://github.com/psi4/psi4/blob/master/codemeta.json
    https://github.com/psi4/psi4/graphs/contributors
    http://psicode.org/psi4manual/master/introduction.html#citing-psifour

    -----------------------------------------------------------------------


    Psi4 started on: Tuesday, 27 September 2022 06:25PM

    Process ID: 10544
    Host:       Lenovo-Y540-Zoha
    PSIDATADIR: C:\Users\64292\Anaconda3\envs\qm-tools\lib\share\psi4
    Memory:     476.8 MiB
    Threads:    1
    
  ==> Input QCSchema <==

--------------------------------------------------------------------------
{'driver': 'energy',
 'extras': {'psiapi': True, 'wfn_qcvars_only': True},
 'id': None,
 'keywords': {'function_kwargs': {}},
 'model': {'basis': 'aug-cc-pvdz', 'method': 'scf'},
 'molecule': {'atom_labels': ['1', '2', '3', '5', '6', '7'],
              'atomic_numbers': [8, 1, 1, 8, 1, 1],
              'fix_com': True,
              'fix_orientation': True,
              'fragment_charges': [0.0, 0.0],
              'fragment_multiplicities': [1, 1],
              'fragments': [[0, 1, 2], [3, 4, 5]],
              'geometry': [3.08214385307306e-17, -0.05118338925575476, -2.7381048180397762, 3.08214385307306e-17,
                           -0.05118338925575476, -0.8483786925819481, 3.08214385307306e-17, 1.7781852282291912,
                           -3.211893051957708, 3.08214385307306e-17, -0.05118338925575476, 2.5531283332421424,
                           1.157216190244586, -1.2083995795003426, 3.497991395971056, -1.1572161902445872,
                           1.1060328009888314, 3.4979913959710567],
              'mass_numbers': [16, 1, 1, 16, 1, 1],
              'masses': [15.99491461957, 1.00782503223, 1.00782503223, 15.99491461957, 1.00782503223, 1.00782503223],
              'molecular_charge': 0.0,
              'molecular_multiplicity': 1,
              'name': 'H4O2',
              'provenance': {'creator': 'QCElemental',
                             'routine': 'qcelemental.molparse.from_string',
                             'version': 'v0.25.0'},
              'real': [False, False, False, True, True, True],
              'schema_name': 'qcschema_molecule',
              'schema_version': 2,
              'symbols': ['O', 'H', 'H', 'O', 'H', 'H'],
              'validated': True},
 'protocols': {'stdout': True},
 'provenance': {'creator': 'QCElemental', 'routine': 'qcelemental.models.results', 'version': 'v0.25.0'},
 'schema_name': 'qcschema_input',
 'schema_version': 1}
--------------------------------------------------------------------------

Scratch directory: C:\Users\64292\AppData\Local\Temp/

*** tstart() called on Lenovo-Y540-Zoha
*** at Tue Sep 27 18:39:58 2022

   => Loading Basis Set <=

    Name: AUG-CC-PVDZ
    Role: ORBITAL
    Keyword: BASIS
    atoms 1, 4     entry O          line   254 file C:\Users\64292\Anaconda3\envs\qm-tools\lib\share\psi4\basis\aug-cc-pvdz.gbs 
    atoms 2-3, 5-6 entry H          line    40 file C:\Users\64292\Anaconda3\envs\qm-tools\lib\share\psi4\basis\aug-cc-pvdz.gbs 


         ---------------------------------------------------------
                                   SCF
               by Justin Turney, Rob Parrish, Andy Simmonett
                          and Daniel G. A. Smith
                              RHF Reference
                        1 Threads,    476 MiB Core
         ---------------------------------------------------------

  ==> Geometry <==

    Molecular point group: c1
    Full point group: C1

    Geometry (in Bohr), charge = 0, multiplicity = 1:

       Center              X                  Y                   Z               Mass       
    ------------   -----------------  -----------------  -----------------  -----------------
      Gh(O)           0.000000000000    -0.051183389256    -2.738104818040    15.994914619570
      Gh(H)           0.000000000000    -0.051183389256    -0.848378692582     1.007825032230
      Gh(H)           0.000000000000     1.778185228229    -3.211893051958     1.007825032230
         O            0.000000000000    -0.051183389256     2.553128333242    15.994914619570
         H            1.157216190245    -1.208399579500     3.497991395971     1.007825032230
         H           -1.157216190245     1.106032800989     3.497991395971     1.007825032230

  Running in c1 symmetry.

  Rotational constants: A =      7.05004  B =      0.23043  C =      0.22505 [cm^-1]
  Rotational constants: A = 211354.77346  B =   6908.08100  C =   6746.82310 [MHz]
  Nuclear repulsion =    8.772355975749342

  Charge       = 0
  Multiplicity = 1
  Electrons    = 10
  Nalpha       = 5
  Nbeta        = 5

  ==> Algorithm <==

  SCF Algorithm Type is DF.
  DIIS enabled.
  MOM disabled.
  Fractional occupation disabled.
  Guess Type is SAD.
  Energy threshold   = 1.00e-06
  Density threshold  = 1.00e-06
  Integral threshold = 1.00e-12

  ==> Primary Basis <==

  Basis Set: AUG-CC-PVDZ
    Blend: AUG-CC-PVDZ
    Number of shells: 38
    Number of basis functions: 82
    Number of Cartesian functions: 86
    Spherical Harmonics?: true
    Max angular momentum: 2

   => Loading Basis Set <=

    Name: (AUG-CC-PVDZ AUX)
    Role: JKFIT
    Keyword: DF_BASIS_SCF
    atoms 1, 4     entry O          line   270 file C:\Users\64292\Anaconda3\envs\qm-tools\lib\share\psi4\basis\aug-cc-pvdz-jkfit.gbs 
    atoms 2-3, 5-6 entry H          line    70 file C:\Users\64292\Anaconda3\envs\qm-tools\lib\share\psi4\basis\aug-cc-pvdz-jkfit.gbs 

  ==> Integral Setup <==

  DFHelper Memory: AOs need 0.017 GiB; user supplied 0.349 GiB. Using in-core AOs.

  ==> MemDFJK: Density-Fitted J/K Matrices <==

    J tasked:                   Yes
    K tasked:                   Yes
    wK tasked:                   No
    OpenMP threads:               1
    Memory [MiB]:               357
    Algorithm:                 Core
    Schwarz Cutoff:           1E-12
    Mask sparsity (%):       0.0000
    Fitting Condition:        1E-10

   => Auxiliary Basis Set <=

  Basis Set: (AUG-CC-PVDZ AUX)
    Blend: AUG-CC-PVDZ-JKFIT
    Number of shells: 104
    Number of basis functions: 300
    Number of Cartesian functions: 342
    Spherical Harmonics?: true
    Max angular momentum: 3

  Minimum eigenvalue in the overlap matrix is 1.8987900143E-03.
  Reciprocal condition number of the overlap matrix is 2.4948657364E-04.
    Using symmetric orthogonalization.

  ==> Pre-Iterations <==

  SCF Guess: Superposition of Atomic Densities via on-the-fly atomic UHF (no occupation information).

   -------------------------
    Irrep   Nso     Nmo    
   -------------------------
     A         82      82 
   -------------------------
    Total      82      82
   -------------------------

  ==> Iterations <==

                           Total Energy        Delta E     RMS |[F,P]|

   @DF-RHF iter SAD:   -75.40236270295196   -7.54024e+01   0.00000e+00 
   @DF-RHF iter   1:   -75.94524792584608   -5.42885e-01   5.51120e-03 DIIS/ADIIS
   @DF-RHF iter   2:   -75.99645063135574   -5.12027e-02   3.73402e-03 DIIS/ADIIS
   @DF-RHF iter   3:   -76.02954092208176   -3.30903e-02   2.79009e-04 DIIS/ADIIS
   @DF-RHF iter   4:   -76.03001179039074   -4.70868e-04   6.68235e-05 DIIS
   @DF-RHF iter   5:   -76.03004446308979   -3.26727e-05   1.63073e-05 DIIS
   @DF-RHF iter   6:   -76.03004754386622   -3.08078e-06   3.50610e-06 DIIS
   @DF-RHF iter   7:   -76.03004769974368   -1.55877e-07   6.45568e-07 DIIS
  Energy and wave function converged.


  ==> Post-Iterations <==

    Orbital Energies [Eh]
    ---------------------

    Doubly Occupied:                                                      

       1A    -20.575890     2A     -1.325797     3A     -0.721119  
       4A     -0.548182     5A     -0.500583  

    Virtual:                                                              

       6A      0.032438     7A      0.054154     8A      0.056728  
       9A      0.083006    10A      0.164053    11A      0.175140  
      12A      0.182369    13A      0.198697    14A      0.215034  
      15A      0.223006    16A      0.244129    17A      0.252636  
      18A      0.321002    19A      0.325419    20A      0.367809  
      21A      0.407819    22A      0.448431    23A      0.454263  
      24A      0.473585    25A      0.506803    26A      0.529161  
      27A      0.537112    28A      0.551563    29A      0.576520  
      30A      0.636938    31A      0.654864    32A      0.666863  
      33A      0.727089    34A      0.879967    35A      0.884409  
      36A      0.952731    37A      0.972923    38A      1.139208  
      39A      1.150776    40A      1.184574    41A      1.201495  
      42A      1.223046    43A      1.291509    44A      1.340426  
      45A      1.411254    46A      1.421088    47A      1.455584  
      48A      1.522636    49A      1.579567    50A      1.597584  
      51A      1.768730    52A      2.002930    53A      2.050000  
      54A      2.062773    55A      2.184924    56A      2.377595  
      57A      2.390789    58A      2.423242    59A      2.475997  
      60A      2.516744    61A      2.556814    62A      2.684765  
      63A      2.845262    64A      2.930046    65A      2.965035  
      66A      3.456121    67A      3.701298    68A      3.740352  
      69A      3.847887    70A      3.916485    71A      4.109935  
      72A      4.149074    73A      4.206864    74A      4.916873  
      75A      4.964679    76A      5.004657    77A      5.202748  
      78A      5.500158    79A      5.698883    80A      6.506982  
      81A      6.967969    82A     33.579713  

    Final Occupation by Irrep:
              A 
    DOCC [     5 ]

  @DF-RHF Final Energy:   -76.03004769974368

   => Energetics <=

    Nuclear Repulsion Energy =              8.7723559757493419
    One-Electron Energy =                -122.2616296847952100
    Two-Electron Energy =                  37.4592260093022063
    Total Energy =                        -76.0300476997436760

Computation Completed


Properties will be evaluated at   0.000000,   0.000000,   0.000000 [a0]

Properties computed using the SCF density matrix


 Multipole Moments:

 ------------------------------------------------------------------------------------
     Multipole            Electronic (a.u.)      Nuclear  (a.u.)        Total (a.u.)
 ------------------------------------------------------------------------------------

 L = 1.  Multiply by 2.5417464519 to convert [e a0] to [Debye]
 Dipole X            :         -0.0001340           -0.0000000           -0.0001340
 Dipole Y            :          0.5115088           -0.5118339           -0.0003251
 Dipole Z            :        -26.7371609           27.4210095            0.6838486
 Magnitude           :                                                    0.6838487

 ------------------------------------------------------------------------------------

*** tstop() called on Lenovo-Y540-Zoha at Tue Sep 27 18:39:59 2022
Module time:
	user time   =        nan seconds =        nan minutes
	system time =        nan seconds =        nan minutes
	total time  =          1 seconds =       0.02 minutes
Total time:
	user time   =        nan seconds =        nan minutes
	system time =        nan seconds =        nan minutes
	total time  =        818 seconds =      13.63 minutes

    Psi4 stopped on: Tuesday, 27 September 2022 06:39PM
    Psi4 wall time for execution: 0:00:01.06


    -----------------------------------------------------------------------
          Psi4: An Open-Source Ab Initio Electronic Structure Package
                               Psi4 1.6.1 release

                         Git: Rev {HEAD} 5b9f6e3 


    D. G. A. Smith, L. A. Burns, A. C. Simmonett, R. M. Parrish,
    M. C. Schieber, R. Galvelis, P. Kraus, H. Kruse, R. Di Remigio,
    A. Alenaizan, A. M. James, S. Lehtola, J. P. Misiewicz, M. Scheurer,
    R. A. Shaw, J. B. Schriber, Y. Xie, Z. L. Glick, D. A. Sirianni,
    J. S. O'Brien, J. M. Waldrop, A. Kumar, E. G. Hohenstein,
    B. P. Pritchard, B. R. Brooks, H. F. Schaefer III, A. Yu. Sokolov,
    K. Patkowski, A. E. DePrince III, U. Bozkaya, R. A. King,
    F. A. Evangelista, J. M. Turney, T. D. Crawford, C. D. Sherrill,
    J. Chem. Phys. 152(18) 184108 (2020). https://doi.org/10.1063/5.0006002

                            Additional Code Authors
    E. T. Seidl, C. L. Janssen, E. F. Valeev, M. L. Leininger,
    J. F. Gonthier, R. M. Richard, H. R. McAlexander, M. Saitow, X. Wang,
    P. Verma, M. H. Lechner, and A. Jiang

             Previous Authors, Complete List of Code Contributors,
                       and Citations for Specific Modules
    https://github.com/psi4/psi4/blob/master/codemeta.json
    https://github.com/psi4/psi4/graphs/contributors
    http://psicode.org/psi4manual/master/introduction.html#citing-psifour

    -----------------------------------------------------------------------


    Psi4 started on: Tuesday, 27 September 2022 06:25PM

    Process ID: 10544
    Host:       Lenovo-Y540-Zoha
    PSIDATADIR: C:\Users\64292\Anaconda3\envs\qm-tools\lib\share\psi4
    Memory:     476.8 MiB
    Threads:    1
    
  ==> Input QCSchema <==

--------------------------------------------------------------------------
{'driver': 'energy',
 'extras': {'psiapi': True, 'wfn_qcvars_only': True},
 'id': None,
 'keywords': {'function_kwargs': {}},
 'model': {'basis': 'aug-cc-pvdz', 'method': 'scf'},
 'molecule': {'atom_labels': ['1', '2', '3', '5', '6', '7'],
              'atomic_numbers': [8, 1, 1, 8, 1, 1],
              'fix_com': True,
              'fix_orientation': True,
              'fragment_charges': [0.0, 0.0],
              'fragment_multiplicities': [1, 1],
              'fragments': [[0, 1, 2], [3, 4, 5]],
              'geometry': [3.08214385307306e-17, -0.05118338925575476, -2.7381048180397762, 3.08214385307306e-17,
                           -0.05118338925575476, -0.8483786925819481, 3.08214385307306e-17, 1.7781852282291912,
                           -3.211893051957708, 3.08214385307306e-17, -0.05118338925575476, 2.5531283332421424,
                           1.157216190244586, -1.2083995795003426, 3.497991395971056, -1.1572161902445872,
                           1.1060328009888314, 3.4979913959710567],
              'mass_numbers': [16, 1, 1, 16, 1, 1],
              'masses': [15.99491461957, 1.00782503223, 1.00782503223, 15.99491461957, 1.00782503223, 1.00782503223],
              'molecular_charge': 0.0,
              'molecular_multiplicity': 1,
              'name': 'H4O2',
              'provenance': {'creator': 'QCElemental',
                             'routine': 'qcelemental.molparse.from_string',
                             'version': 'v0.25.0'},
              'real': [True, True, True, False, False, False],
              'schema_name': 'qcschema_molecule',
              'schema_version': 2,
              'symbols': ['O', 'H', 'H', 'O', 'H', 'H'],
              'validated': True},
 'protocols': {'stdout': True},
 'provenance': {'creator': 'QCElemental', 'routine': 'qcelemental.models.results', 'version': 'v0.25.0'},
 'schema_name': 'qcschema_input',
 'schema_version': 1}
--------------------------------------------------------------------------

Scratch directory: C:\Users\64292\AppData\Local\Temp/

*** tstart() called on Lenovo-Y540-Zoha
*** at Tue Sep 27 18:39:59 2022

   => Loading Basis Set <=

    Name: AUG-CC-PVDZ
    Role: ORBITAL
    Keyword: BASIS
    atoms 1, 4     entry O          line   254 file C:\Users\64292\Anaconda3\envs\qm-tools\lib\share\psi4\basis\aug-cc-pvdz.gbs 
    atoms 2-3, 5-6 entry H          line    40 file C:\Users\64292\Anaconda3\envs\qm-tools\lib\share\psi4\basis\aug-cc-pvdz.gbs 


         ---------------------------------------------------------
                                   SCF
               by Justin Turney, Rob Parrish, Andy Simmonett
                          and Daniel G. A. Smith
                              RHF Reference
                        1 Threads,    476 MiB Core
         ---------------------------------------------------------

  ==> Geometry <==

    Molecular point group: c1
    Full point group: C1

    Geometry (in Bohr), charge = 0, multiplicity = 1:

       Center              X                  Y                   Z               Mass       
    ------------   -----------------  -----------------  -----------------  -----------------
         O            0.000000000000    -0.051183389256    -2.738104818040    15.994914619570
         H            0.000000000000    -0.051183389256    -0.848378692582     1.007825032230
         H            0.000000000000     1.778185228229    -3.211893051958     1.007825032230
      Gh(O)           0.000000000000    -0.051183389256     2.553128333242    15.994914619570
      Gh(H)           1.157216190245    -1.208399579500     3.497991395971     1.007825032230
      Gh(H)          -1.157216190245     1.106032800989     3.497991395971     1.007825032230

  Running in c1 symmetry.

  Rotational constants: A =      7.05004  B =      0.23043  C =      0.22505 [cm^-1]
  Rotational constants: A = 211354.77346  B =   6908.08100  C =   6746.82310 [MHz]
  Nuclear repulsion =    8.801420354575150

  Charge       = 0
  Multiplicity = 1
  Electrons    = 10
  Nalpha       = 5
  Nbeta        = 5

  ==> Algorithm <==

  SCF Algorithm Type is DF.
  DIIS enabled.
  MOM disabled.
  Fractional occupation disabled.
  Guess Type is SAD.
  Energy threshold   = 1.00e-06
  Density threshold  = 1.00e-06
  Integral threshold = 1.00e-12

  ==> Primary Basis <==

  Basis Set: AUG-CC-PVDZ
    Blend: AUG-CC-PVDZ
    Number of shells: 38
    Number of basis functions: 82
    Number of Cartesian functions: 86
    Spherical Harmonics?: true
    Max angular momentum: 2

   => Loading Basis Set <=

    Name: (AUG-CC-PVDZ AUX)
    Role: JKFIT
    Keyword: DF_BASIS_SCF
    atoms 1, 4     entry O          line   270 file C:\Users\64292\Anaconda3\envs\qm-tools\lib\share\psi4\basis\aug-cc-pvdz-jkfit.gbs 
    atoms 2-3, 5-6 entry H          line    70 file C:\Users\64292\Anaconda3\envs\qm-tools\lib\share\psi4\basis\aug-cc-pvdz-jkfit.gbs 

  ==> Integral Setup <==

  DFHelper Memory: AOs need 0.017 GiB; user supplied 0.349 GiB. Using in-core AOs.

  ==> MemDFJK: Density-Fitted J/K Matrices <==

    J tasked:                   Yes
    K tasked:                   Yes
    wK tasked:                   No
    OpenMP threads:               1
    Memory [MiB]:               357
    Algorithm:                 Core
    Schwarz Cutoff:           1E-12
    Mask sparsity (%):       0.0000
    Fitting Condition:        1E-10

   => Auxiliary Basis Set <=

  Basis Set: (AUG-CC-PVDZ AUX)
    Blend: AUG-CC-PVDZ-JKFIT
    Number of shells: 104
    Number of basis functions: 300
    Number of Cartesian functions: 342
    Spherical Harmonics?: true
    Max angular momentum: 3

  Minimum eigenvalue in the overlap matrix is 1.8987900143E-03.
  Reciprocal condition number of the overlap matrix is 2.4948657364E-04.
    Using symmetric orthogonalization.

  ==> Pre-Iterations <==

  SCF Guess: Superposition of Atomic Densities via on-the-fly atomic UHF (no occupation information).

   -------------------------
    Irrep   Nso     Nmo    
   -------------------------
     A         82      82 
   -------------------------
    Total      82      82
   -------------------------

  ==> Iterations <==

                           Total Energy        Delta E     RMS |[F,P]|

   @DF-RHF iter SAD:   -75.41487081461837   -7.54149e+01   0.00000e+00 
   @DF-RHF iter   1:   -75.94943038548207   -5.34560e-01   5.50728e-03 DIIS/ADIIS
   @DF-RHF iter   2:   -76.00131264634230   -5.18823e-02   3.77734e-03 DIIS/ADIIS
   @DF-RHF iter   3:   -76.03527601420268   -3.39634e-02   2.81163e-04 DIIS/ADIIS
   @DF-RHF iter   4:   -76.03572945073610   -4.53437e-04   6.60478e-05 DIIS
   @DF-RHF iter   5:   -76.03575962943800   -3.01787e-05   1.56516e-05 DIIS
   @DF-RHF iter   6:   -76.03576220844960   -2.57901e-06   3.09812e-06 DIIS
   @DF-RHF iter   7:   -76.03576231227868   -1.03829e-07   5.06401e-07 DIIS
  Energy and wave function converged.


  ==> Post-Iterations <==

    Orbital Energies [Eh]
    ---------------------

    Doubly Occupied:                                                      

       1A    -20.584220     2A     -1.335635     3A     -0.696488  
       4A     -0.577352     5A     -0.506056  

    Virtual:                                                              

       6A      0.024935     7A      0.050321     8A      0.058896  
       9A      0.081828    10A      0.135455    11A      0.147507  
      12A      0.184014    13A      0.196538    14A      0.221664  
      15A      0.226965    16A      0.231158    17A      0.273300  
      18A      0.333078    19A      0.357149    20A      0.367086  
      21A      0.396729    22A      0.405634    23A      0.416770  
      24A      0.432517    25A      0.478055    26A      0.480395  
      27A      0.488949    28A      0.521339    29A      0.569379  
      30A      0.588852    31A      0.634770    32A      0.651386  
      33A      0.756498    34A      0.867730    35A      0.922206  
      36A      0.980595    37A      1.038788    38A      1.112208  
      39A      1.157606    40A      1.178009    41A      1.185214  
      42A      1.204241    43A      1.284348    44A      1.295557  
      45A      1.306349    46A      1.332259    47A      1.414216  
      48A      1.460429    49A      1.514224    50A      1.586648  
      51A      1.766154    52A      1.985163    53A      2.006319  
      54A      2.063494    55A      2.101205    56A      2.342015  
      57A      2.370065    58A      2.384024    59A      2.392571  
      60A      2.460419    61A      2.560706    62A      2.665302  
      63A      2.723914    64A      2.977413    65A      2.995481  
      66A      3.486185    67A      3.676526    68A      3.706918  
      69A      3.734531    70A      3.976018    71A      4.002958  
      72A      4.074194    73A      4.336098    74A      4.924151  
      75A      4.932773    76A      5.047727    77A      5.326124  
      78A      5.394036    79A      5.608664    80A      6.463325  
      81A      6.803700    82A     33.531938  

    Final Occupation by Irrep:
              A 
    DOCC [     5 ]

  @DF-RHF Final Energy:   -76.03576231227868

   => Energetics <=

    Nuclear Repulsion Energy =              8.8014203545751499
    One-Electron Energy =                -122.2748411811488154
    Two-Electron Energy =                  37.4376585142949736
    Total Energy =                        -76.0357623122786777

Computation Completed


Properties will be evaluated at   0.000000,   0.000000,   0.000000 [a0]

Properties computed using the SCF density matrix


 Multipole Moments:

 ------------------------------------------------------------------------------------
     Multipole            Electronic (a.u.)      Nuclear  (a.u.)        Total (a.u.)
 ------------------------------------------------------------------------------------

 L = 1.  Multiply by 2.5417464519 to convert [e a0] to [Debye]
 Dipole X            :         -0.0001718            0.0000000           -0.0001718
 Dipole Y            :         -0.6855836            1.3175347            0.6319511
 Dipole Z            :         26.4539934          -25.9651103            0.4888831
 Magnitude           :                                                    0.7989800

 ------------------------------------------------------------------------------------

*** tstop() called on Lenovo-Y540-Zoha at Tue Sep 27 18:40:00 2022
Module time:
	user time   =        nan seconds =        nan minutes
	system time =        nan seconds =        nan minutes
	total time  =          1 seconds =       0.02 minutes
Total time:
	user time   =        nan seconds =        nan minutes
	system time =        nan seconds =        nan minutes
	total time  =        819 seconds =      13.65 minutes

    Psi4 stopped on: Tuesday, 27 September 2022 06:40PM
    Psi4 wall time for execution: 0:00:01.06


    -----------------------------------------------------------------------
          Psi4: An Open-Source Ab Initio Electronic Structure Package
                               Psi4 1.6.1 release

                         Git: Rev {HEAD} 5b9f6e3 


    D. G. A. Smith, L. A. Burns, A. C. Simmonett, R. M. Parrish,
    M. C. Schieber, R. Galvelis, P. Kraus, H. Kruse, R. Di Remigio,
    A. Alenaizan, A. M. James, S. Lehtola, J. P. Misiewicz, M. Scheurer,
    R. A. Shaw, J. B. Schriber, Y. Xie, Z. L. Glick, D. A. Sirianni,
    J. S. O'Brien, J. M. Waldrop, A. Kumar, E. G. Hohenstein,
    B. P. Pritchard, B. R. Brooks, H. F. Schaefer III, A. Yu. Sokolov,
    K. Patkowski, A. E. DePrince III, U. Bozkaya, R. A. King,
    F. A. Evangelista, J. M. Turney, T. D. Crawford, C. D. Sherrill,
    J. Chem. Phys. 152(18) 184108 (2020). https://doi.org/10.1063/5.0006002

                            Additional Code Authors
    E. T. Seidl, C. L. Janssen, E. F. Valeev, M. L. Leininger,
    J. F. Gonthier, R. M. Richard, H. R. McAlexander, M. Saitow, X. Wang,
    P. Verma, M. H. Lechner, and A. Jiang

             Previous Authors, Complete List of Code Contributors,
                       and Citations for Specific Modules
    https://github.com/psi4/psi4/blob/master/codemeta.json
    https://github.com/psi4/psi4/graphs/contributors
    http://psicode.org/psi4manual/master/introduction.html#citing-psifour

    -----------------------------------------------------------------------


    Psi4 started on: Tuesday, 27 September 2022 06:25PM

    Process ID: 10544
    Host:       Lenovo-Y540-Zoha
    PSIDATADIR: C:\Users\64292\Anaconda3\envs\qm-tools\lib\share\psi4
    Memory:     476.8 MiB
    Threads:    1
    
  ==> Input QCSchema <==

--------------------------------------------------------------------------
{'driver': 'energy',
 'extras': {'psiapi': True, 'wfn_qcvars_only': True},
 'id': None,
 'keywords': {'function_kwargs': {}},
 'model': {'basis': 'aug-cc-pvdz', 'method': 'scf'},
 'molecule': {'atom_labels': ['1', '2', '3', '5', '6', '7'],
              'atomic_numbers': [8, 1, 1, 8, 1, 1],
              'fix_com': True,
              'fix_orientation': True,
              'fragment_charges': [0.0, 0.0],
              'fragment_multiplicities': [1, 1],
              'fragments': [[0, 1, 2], [3, 4, 5]],
              'geometry': [3.08214385307306e-17, -0.05118338925575476, -2.7381048180397762, 3.08214385307306e-17,
                           -0.05118338925575476, -0.8483786925819481, 3.08214385307306e-17, 1.7781852282291912,
                           -3.211893051957708, 3.08214385307306e-17, -0.05118338925575476, 2.5531283332421424,
                           1.157216190244586, -1.2083995795003426, 3.497991395971056, -1.1572161902445872,
                           1.1060328009888314, 3.4979913959710567],
              'mass_numbers': [16, 1, 1, 16, 1, 1],
              'masses': [15.99491461957, 1.00782503223, 1.00782503223, 15.99491461957, 1.00782503223, 1.00782503223],
              'molecular_charge': 0.0,
              'molecular_multiplicity': 1,
              'name': 'H4O2',
              'provenance': {'creator': 'QCElemental',
                             'routine': 'qcelemental.molparse.from_string',
                             'version': 'v0.25.0'},
              'real': [True, True, True, True, True, True],
              'schema_name': 'qcschema_molecule',
              'schema_version': 2,
              'symbols': ['O', 'H', 'H', 'O', 'H', 'H'],
              'validated': True},
 'protocols': {'stdout': True},
 'provenance': {'creator': 'QCElemental', 'routine': 'qcelemental.models.results', 'version': 'v0.25.0'},
 'schema_name': 'qcschema_input',
 'schema_version': 1}
--------------------------------------------------------------------------

Scratch directory: C:\Users\64292\AppData\Local\Temp/

*** tstart() called on Lenovo-Y540-Zoha
*** at Tue Sep 27 18:40:00 2022

   => Loading Basis Set <=

    Name: AUG-CC-PVDZ
    Role: ORBITAL
    Keyword: BASIS
    atoms 1, 4     entry O          line   254 file C:\Users\64292\Anaconda3\envs\qm-tools\lib\share\psi4\basis\aug-cc-pvdz.gbs 
    atoms 2-3, 5-6 entry H          line    40 file C:\Users\64292\Anaconda3\envs\qm-tools\lib\share\psi4\basis\aug-cc-pvdz.gbs 


         ---------------------------------------------------------
                                   SCF
               by Justin Turney, Rob Parrish, Andy Simmonett
                          and Daniel G. A. Smith
                              RHF Reference
                        1 Threads,    476 MiB Core
         ---------------------------------------------------------

  ==> Geometry <==

    Molecular point group: c1
    Full point group: C1

    Geometry (in Bohr), charge = 0, multiplicity = 1:

       Center              X                  Y                   Z               Mass       
    ------------   -----------------  -----------------  -----------------  -----------------
         O            0.000000000000    -0.051183389256    -2.738104818040    15.994914619570
         H            0.000000000000    -0.051183389256    -0.848378692582     1.007825032230
         H            0.000000000000     1.778185228229    -3.211893051958     1.007825032230
         O            0.000000000000    -0.051183389256     2.553128333242    15.994914619570
         H            1.157216190245    -1.208399579500     3.497991395971     1.007825032230
         H           -1.157216190245     1.106032800989     3.497991395971     1.007825032230

  Running in c1 symmetry.

  Rotational constants: A =      7.05004  B =      0.23043  C =      0.22505 [cm^-1]
  Rotational constants: A = 211354.77346  B =   6908.08100  C =   6746.82310 [MHz]
  Nuclear repulsion =   36.536800883089114

  Charge       = 0
  Multiplicity = 1
  Electrons    = 20
  Nalpha       = 10
  Nbeta        = 10

  ==> Algorithm <==

  SCF Algorithm Type is DF.
  DIIS enabled.
  MOM disabled.
  Fractional occupation disabled.
  Guess Type is SAD.
  Energy threshold   = 1.00e-06
  Density threshold  = 1.00e-06
  Integral threshold = 1.00e-12

  ==> Primary Basis <==

  Basis Set: AUG-CC-PVDZ
    Blend: AUG-CC-PVDZ
    Number of shells: 38
    Number of basis functions: 82
    Number of Cartesian functions: 86
    Spherical Harmonics?: true
    Max angular momentum: 2

   => Loading Basis Set <=

    Name: (AUG-CC-PVDZ AUX)
    Role: JKFIT
    Keyword: DF_BASIS_SCF
    atoms 1, 4     entry O          line   270 file C:\Users\64292\Anaconda3\envs\qm-tools\lib\share\psi4\basis\aug-cc-pvdz-jkfit.gbs 
    atoms 2-3, 5-6 entry H          line    70 file C:\Users\64292\Anaconda3\envs\qm-tools\lib\share\psi4\basis\aug-cc-pvdz-jkfit.gbs 

  ==> Integral Setup <==

  DFHelper Memory: AOs need 0.017 GiB; user supplied 0.349 GiB. Using in-core AOs.

  ==> MemDFJK: Density-Fitted J/K Matrices <==

    J tasked:                   Yes
    K tasked:                   Yes
    wK tasked:                   No
    OpenMP threads:               1
    Memory [MiB]:               357
    Algorithm:                 Core
    Schwarz Cutoff:           1E-12
    Mask sparsity (%):       0.0000
    Fitting Condition:        1E-10

   => Auxiliary Basis Set <=

  Basis Set: (AUG-CC-PVDZ AUX)
    Blend: AUG-CC-PVDZ-JKFIT
    Number of shells: 104
    Number of basis functions: 300
    Number of Cartesian functions: 342
    Spherical Harmonics?: true
    Max angular momentum: 3

  Minimum eigenvalue in the overlap matrix is 1.8987900143E-03.
  Reciprocal condition number of the overlap matrix is 2.4948657364E-04.
    Using symmetric orthogonalization.

  ==> Pre-Iterations <==

  SCF Guess: Superposition of Atomic Densities via on-the-fly atomic UHF (no occupation information).

   -------------------------
    Irrep   Nso     Nmo    
   -------------------------
     A         82      82 
   -------------------------
    Total      82      82
   -------------------------

  ==> Iterations <==

                           Total Energy        Delta E     RMS |[F,P]|

   @DF-RHF iter SAD:  -150.92763735882369   -1.50928e+02   0.00000e+00 
   @DF-RHF iter   1:  -151.91324060709292   -9.85603e-01   7.46605e-03 DIIS/ADIIS
   @DF-RHF iter   2:  -152.01383567504732   -1.00595e-01   4.86093e-03 DIIS/ADIIS
   @DF-RHF iter   3:  -152.06969657863414   -5.58609e-02   4.19400e-04 DIIS/ADIIS
   @DF-RHF iter   4:  -152.07069547174038   -9.98893e-04   9.56416e-05 DIIS
   @DF-RHF iter   5:  -152.07075263468681   -5.71629e-05   3.76556e-05 DIIS
   @DF-RHF iter   6:  -152.07075973395564   -7.09927e-06   1.28690e-05 DIIS
   @DF-RHF iter   7:  -152.07076086961712   -1.13566e-06   2.45832e-06 DIIS
   @DF-RHF iter   8:  -152.07076093598570   -6.63686e-08   4.83339e-07 DIIS
  Energy and wave function converged.


  ==> Post-Iterations <==

    Orbital Energies [Eh]
    ---------------------

    Doubly Occupied:                                                      

       1A    -20.605872     2A    -20.540778     3A     -1.360837  
       4A     -1.296831     5A     -0.752740     6A     -0.674764  
       7A     -0.587623     8A     -0.535081     9A     -0.527843  
      10A     -0.467108  

    Virtual:                                                              

      11A      0.024444    12A      0.049328    13A      0.059491  
      14A      0.090314    15A      0.173304    16A      0.178820  
      17A      0.201557    18A      0.212541    19A      0.232350  
      20A      0.236779    21A      0.248836    22A      0.280236  
      23A      0.306574    24A      0.310893    25A      0.348914  
      26A      0.368435    27A      0.416980    28A      0.430679  
      29A      0.469372    30A      0.491690    31A      0.517368  
      32A      0.542209    33A      0.546017    34A      0.600720  
      35A      0.628787    36A      0.648453    37A      0.675080  
      38A      0.787498    39A      0.856001    40A      0.863586  
      41A      0.950221    42A      0.975973    43A      1.116674  
      44A      1.128431    45A      1.144751    46A      1.190802  
      47A      1.216767    48A      1.227887    49A      1.353920  
      50A      1.442893    51A      1.470061    52A      1.521326  
      53A      1.547257    54A      1.636107    55A      1.647027  
      56A      1.933610    57A      2.005410    58A      2.020812  
      59A      2.034231    60A      2.054295    61A      2.062894  
      62A      2.191155    63A      2.395385    64A      2.409466  
      65A      2.476486    66A      2.500697    67A      2.545618  
      68A      2.763680    69A      2.838149    70A      2.853104  
      71A      3.021070    72A      3.055792    73A      3.669026  
      74A      3.699653    75A      3.713179    76A      3.745369  
      77A      3.774709    78A      3.836380    79A      4.097234  
      80A      4.120414    81A      4.174836    82A      4.391732  

    Final Occupation by Irrep:
              A 
    DOCC [    10 ]

  @DF-RHF Final Energy:  -152.07076093598570

   => Energetics <=

    Nuclear Repulsion Energy =             36.5368008830891142
    One-Electron Energy =                -282.5161554017732897
    Two-Electron Energy =                  93.9085935826984723
    Total Energy =                       -152.0707609359857031

Computation Completed


Properties will be evaluated at   0.000000,   0.000000,   0.000000 [a0]

Properties computed using the SCF density matrix


 Multipole Moments:

 ------------------------------------------------------------------------------------
     Multipole            Electronic (a.u.)      Nuclear  (a.u.)        Total (a.u.)
 ------------------------------------------------------------------------------------

 L = 1.  Multiply by 2.5417464519 to convert [e a0] to [Debye]
 Dipole X            :          0.0017944           -0.0000000            0.0017944
 Dipole Y            :         -0.2071071            0.8057008            0.5985937
 Dipole Z            :          0.0292787            1.4558992            1.4851779
 Magnitude           :                                                    1.6012716

 ------------------------------------------------------------------------------------

*** tstop() called on Lenovo-Y540-Zoha at Tue Sep 27 18:40:01 2022
Module time:
	user time   =        nan seconds =        nan minutes
	system time =        nan seconds =        nan minutes
	total time  =          1 seconds =       0.02 minutes
Total time:
	user time   =        nan seconds =        nan minutes
	system time =        nan seconds =        nan minutes
	total time  =        820 seconds =      13.67 minutes

    Psi4 stopped on: Tuesday, 27 September 2022 06:40PM
    Psi4 wall time for execution: 0:00:01.08


  //>>>>>>>>>>>>>>>>>>>>>>>>>>>>>>>>>>>//
  //          ManyBody Results         //
  //<<<<<<<<<<<<<<<<<<<<<<<<<<<<<<<<<<<//


   ==> N-Body: Counterpoise Corrected (CP) energies <==

        n-Body     Total Energy            Interaction Energy                          N-body Contribution to Interaction Energy
                   [Eh]                    [Eh]                  [kcal/mol]            [Eh]                  [kcal/mol]
             1  N/A                         0.000000000000        0.000000000000        0.000000000000        0.000000000000
  FULL/RTN   2  N/A                        -0.004950923963       -3.106751690954       -0.004950923963       -3.106751690954

