
Scratch directory: C:\Users\64292\AppData\Local\Temp/

  //>>>>>>>>>>>>>>>>>>>>>>>>>>>>>>>>>>>>>//
  // ManyBody Setup: N-Body Levels [1, 2]//
  //<<<<<<<<<<<<<<<<<<<<<<<<<<<<<<<<<<<<<//

        Number of 1-body computations:     2
        Number of 2-body computations:     1

    -----------------------------------------------------------------------
          Psi4: An Open-Source Ab Initio Electronic Structure Package
                               Psi4 1.6.1 release

                         Git: Rev {HEAD} 5b9f6e3 


    D. G. A. Smith, L. A. Burns, A. C. Simmonett, R. M. Parrish,
    M. C. Schieber, R. Galvelis, P. Kraus, H. Kruse, R. Di Remigio,
    A. Alenaizan, A. M. James, S. Lehtola, J. P. Misiewicz, M. Scheurer,
    R. A. Shaw, J. B. Schriber, Y. Xie, Z. L. Glick, D. A. Sirianni,
    J. S. O'Brien, J. M. Waldrop, A. Kumar, E. G. Hohenstein,
    B. P. Pritchard, B. R. Brooks, H. F. Schaefer III, A. Yu. Sokolov,
    K. Patkowski, A. E. DePrince III, U. Bozkaya, R. A. King,
    F. A. Evangelista, J. M. Turney, T. D. Crawford, C. D. Sherrill,
    J. Chem. Phys. 152(18) 184108 (2020). https://doi.org/10.1063/5.0006002

                            Additional Code Authors
    E. T. Seidl, C. L. Janssen, E. F. Valeev, M. L. Leininger,
    J. F. Gonthier, R. M. Richard, H. R. McAlexander, M. Saitow, X. Wang,
    P. Verma, M. H. Lechner, and A. Jiang

             Previous Authors, Complete List of Code Contributors,
                       and Citations for Specific Modules
    https://github.com/psi4/psi4/blob/master/codemeta.json
    https://github.com/psi4/psi4/graphs/contributors
    http://psicode.org/psi4manual/master/introduction.html#citing-psifour

    -----------------------------------------------------------------------


    Psi4 started on: Tuesday, 27 September 2022 06:25PM

    Process ID: 10544
    Host:       Lenovo-Y540-Zoha
    PSIDATADIR: C:\Users\64292\Anaconda3\envs\qm-tools\lib\share\psi4
    Memory:     476.8 MiB
    Threads:    1
    
  ==> Input QCSchema <==

--------------------------------------------------------------------------
{'driver': 'energy',
 'extras': {'psiapi': True, 'wfn_qcvars_only': True},
 'id': None,
 'keywords': {'function_kwargs': {}},
 'model': {'basis': 'aug-cc-pvdz', 'method': 'scf'},
 'molecule': {'atom_labels': ['1', '2', '3', '5', '6', '7'],
              'atomic_numbers': [8, 1, 1, 8, 1, 1],
              'fix_com': True,
              'fix_orientation': True,
              'fragment_charges': [0.0, 0.0],
              'fragment_multiplicities': [1, 1],
              'fragments': [[0, 1, 2], [3, 4, 5]],
              'geometry': [1.2328575412292244e-17, -0.051183389255754774, -3.3050226556771247, 1.2328575412292244e-17,
                           -0.051183389255754774, -1.4152965302192972, 1.2328575412292244e-17, 1.7781852282291912,
                           -3.7788108895950563, 1.2328575412292244e-17, -0.051183389255754774, 3.120046170879491,
                           -0.8182754154208096, 1.3661112048376154, 4.064909233608405, 0.8182754154208092,
                           -1.4684779833491264, 4.064909233608404],
              'mass_numbers': [16, 1, 1, 16, 1, 1],
              'masses': [15.99491461957, 1.00782503223, 1.00782503223, 15.99491461957, 1.00782503223, 1.00782503223],
              'molecular_charge': 0.0,
              'molecular_multiplicity': 1,
              'name': 'H4O2',
              'provenance': {'creator': 'QCElemental',
                             'routine': 'qcelemental.molparse.from_string',
                             'version': 'v0.25.0'},
              'real': [False, False, False, True, True, True],
              'schema_name': 'qcschema_molecule',
              'schema_version': 2,
              'symbols': ['O', 'H', 'H', 'O', 'H', 'H'],
              'validated': True},
 'protocols': {'stdout': True},
 'provenance': {'creator': 'QCElemental', 'routine': 'qcelemental.models.results', 'version': 'v0.25.0'},
 'schema_name': 'qcschema_input',
 'schema_version': 1}
--------------------------------------------------------------------------

Scratch directory: C:\Users\64292\AppData\Local\Temp/

*** tstart() called on Lenovo-Y540-Zoha
*** at Tue Sep 27 18:48:05 2022

   => Loading Basis Set <=

    Name: AUG-CC-PVDZ
    Role: ORBITAL
    Keyword: BASIS
    atoms 1, 4     entry O          line   254 file C:\Users\64292\Anaconda3\envs\qm-tools\lib\share\psi4\basis\aug-cc-pvdz.gbs 
    atoms 2-3, 5-6 entry H          line    40 file C:\Users\64292\Anaconda3\envs\qm-tools\lib\share\psi4\basis\aug-cc-pvdz.gbs 


         ---------------------------------------------------------
                                   SCF
               by Justin Turney, Rob Parrish, Andy Simmonett
                          and Daniel G. A. Smith
                              RHF Reference
                        1 Threads,    476 MiB Core
         ---------------------------------------------------------

  ==> Geometry <==

    Molecular point group: c1
    Full point group: C1

    Geometry (in Bohr), charge = 0, multiplicity = 1:

       Center              X                  Y                   Z               Mass       
    ------------   -----------------  -----------------  -----------------  -----------------
      Gh(O)           0.000000000000    -0.051183389256    -3.305022655677    15.994914619570
      Gh(H)           0.000000000000    -0.051183389256    -1.415296530219     1.007825032230
      Gh(H)           0.000000000000     1.778185228229    -3.778810889595     1.007825032230
         O            0.000000000000    -0.051183389256     3.120046170879    15.994914619570
         H           -0.818275415421     1.366111204838     4.064909233608     1.007825032230
         H            0.818275415421    -1.468477983349     4.064909233608     1.007825032230

  Running in c1 symmetry.

  Rotational constants: A =      7.04356  B =      0.15809  C =      0.15504 [cm^-1]
  Rotational constants: A = 211160.65885  B =   4739.38340  C =   4648.00626 [MHz]
  Nuclear repulsion =    8.772355975749342

  Charge       = 0
  Multiplicity = 1
  Electrons    = 10
  Nalpha       = 5
  Nbeta        = 5

  ==> Algorithm <==

  SCF Algorithm Type is DF.
  DIIS enabled.
  MOM disabled.
  Fractional occupation disabled.
  Guess Type is SAD.
  Energy threshold   = 1.00e-06
  Density threshold  = 1.00e-06
  Integral threshold = 1.00e-12

  ==> Primary Basis <==

  Basis Set: AUG-CC-PVDZ
    Blend: AUG-CC-PVDZ
    Number of shells: 38
    Number of basis functions: 82
    Number of Cartesian functions: 86
    Spherical Harmonics?: true
    Max angular momentum: 2

   => Loading Basis Set <=

    Name: (AUG-CC-PVDZ AUX)
    Role: JKFIT
    Keyword: DF_BASIS_SCF
    atoms 1, 4     entry O          line   270 file C:\Users\64292\Anaconda3\envs\qm-tools\lib\share\psi4\basis\aug-cc-pvdz-jkfit.gbs 
    atoms 2-3, 5-6 entry H          line    70 file C:\Users\64292\Anaconda3\envs\qm-tools\lib\share\psi4\basis\aug-cc-pvdz-jkfit.gbs 

  ==> Integral Setup <==

  DFHelper Memory: AOs need 0.017 GiB; user supplied 0.349 GiB. Using in-core AOs.

  ==> MemDFJK: Density-Fitted J/K Matrices <==

    J tasked:                   Yes
    K tasked:                   Yes
    wK tasked:                   No
    OpenMP threads:               1
    Memory [MiB]:               357
    Algorithm:                 Core
    Schwarz Cutoff:           1E-12
    Mask sparsity (%):       0.0297
    Fitting Condition:        1E-10

   => Auxiliary Basis Set <=

  Basis Set: (AUG-CC-PVDZ AUX)
    Blend: AUG-CC-PVDZ-JKFIT
    Number of shells: 104
    Number of basis functions: 300
    Number of Cartesian functions: 342
    Spherical Harmonics?: true
    Max angular momentum: 3

  Minimum eigenvalue in the overlap matrix is 2.2160534451E-03.
  Reciprocal condition number of the overlap matrix is 3.2374096144E-04.
    Using symmetric orthogonalization.

  ==> Pre-Iterations <==

  SCF Guess: Superposition of Atomic Densities via on-the-fly atomic UHF (no occupation information).

   -------------------------
    Irrep   Nso     Nmo    
   -------------------------
     A         82      82 
   -------------------------
    Total      82      82
   -------------------------

  ==> Iterations <==

                           Total Energy        Delta E     RMS |[F,P]|

   @DF-RHF iter SAD:   -75.40236292447842   -7.54024e+01   0.00000e+00 
   @DF-RHF iter   1:   -75.94507388122439   -5.42711e-01   5.50724e-03 DIIS/ADIIS
   @DF-RHF iter   2:   -75.99624840091143   -5.11745e-02   3.72849e-03 DIIS/ADIIS
   @DF-RHF iter   3:   -76.02933218030462   -3.30838e-02   2.79208e-04 DIIS/ADIIS
   @DF-RHF iter   4:   -76.02980322096163   -4.71041e-04   6.67385e-05 DIIS
   @DF-RHF iter   5:   -76.02983580664798   -3.25857e-05   1.62910e-05 DIIS
   @DF-RHF iter   6:   -76.02983887927694   -3.07263e-06   3.49419e-06 DIIS
   @DF-RHF iter   7:   -76.02983903392216   -1.54645e-07   6.40931e-07 DIIS
  Energy and wave function converged.


  ==> Post-Iterations <==

    Orbital Energies [Eh]
    ---------------------

    Doubly Occupied:                                                      

       1A    -20.575756     2A     -1.325861     3A     -0.721215  
       4A     -0.548261     5A     -0.500734  

    Virtual:                                                              

       6A      0.032758     7A      0.052239     8A      0.055867  
       9A      0.083286    10A      0.158576    11A      0.169386  
      12A      0.181117    13A      0.197684    14A      0.213843  
      15A      0.221151    16A      0.237594    17A      0.250765  
      18A      0.305706    19A      0.328809    20A      0.372528  
      21A      0.402285    22A      0.435373    23A      0.451027  
      24A      0.454135    25A      0.478555    26A      0.509799  
      27A      0.524508    28A      0.544851    29A      0.565177  
      30A      0.608006    31A      0.637522    32A      0.658216  
      33A      0.702251    34A      0.863456    35A      0.876737  
      36A      0.916483    37A      0.927756    38A      1.100421  
      39A      1.134908    40A      1.146380    41A      1.198661  
      42A      1.230197    43A      1.281574    44A      1.332886  
      45A      1.356576    46A      1.386460    47A      1.416754  
      48A      1.447140    49A      1.515365    50A      1.560358  
      51A      1.859501    52A      1.979810    53A      2.030286  
      54A      2.045504    55A      2.055606    56A      2.282152  
      57A      2.367772    58A      2.409464    59A      2.435958  
      60A      2.459056    61A      2.524525    62A      2.556618  
      63A      2.684784    64A      2.787366    65A      2.900233  
      66A      3.413217    67A      3.674582    68A      3.700829  
      69A      3.777539    70A      3.905684    71A      4.070175  
      72A      4.141559    73A      4.179609    74A      4.907629  
      75A      4.953320    76A      4.987470    77A      5.162542  
      78A      5.473835    79A      5.631038    80A      6.386028  
      81A      6.832592    82A     33.565017  

    Final Occupation by Irrep:
              A 
    DOCC [     5 ]

  @DF-RHF Final Energy:   -76.02983903392216

   => Energetics <=

    Nuclear Repulsion Energy =              8.7723559757493419
    One-Electron Energy =                -122.2606980607606744
    Two-Electron Energy =                  37.4585030510891883
    Total Energy =                        -76.0298390339221442

Computation Completed


Properties will be evaluated at   0.000000,   0.000000,   0.000000 [a0]

Properties computed using the SCF density matrix


 Multipole Moments:

 ------------------------------------------------------------------------------------
     Multipole            Electronic (a.u.)      Nuclear  (a.u.)        Total (a.u.)
 ------------------------------------------------------------------------------------

 L = 1.  Multiply by 2.5417464519 to convert [e a0] to [Debye]
 Dipole X            :         -0.0000914           -0.0000000           -0.0000914
 Dipole Y            :          0.5117003           -0.5118339           -0.0001336
 Dipole Z            :        -32.4029251           33.0901878            0.6872627
 Magnitude           :                                                    0.6872627

 ------------------------------------------------------------------------------------

*** tstop() called on Lenovo-Y540-Zoha at Tue Sep 27 18:48:06 2022
Module time:
	user time   =        nan seconds =        nan minutes
	system time =        nan seconds =        nan minutes
	total time  =          1 seconds =       0.02 minutes
Total time:
	user time   =        nan seconds =        nan minutes
	system time =        nan seconds =        nan minutes
	total time  =       1305 seconds =      21.75 minutes

    Psi4 stopped on: Tuesday, 27 September 2022 06:48PM
    Psi4 wall time for execution: 0:00:01.00


    -----------------------------------------------------------------------
          Psi4: An Open-Source Ab Initio Electronic Structure Package
                               Psi4 1.6.1 release

                         Git: Rev {HEAD} 5b9f6e3 


    D. G. A. Smith, L. A. Burns, A. C. Simmonett, R. M. Parrish,
    M. C. Schieber, R. Galvelis, P. Kraus, H. Kruse, R. Di Remigio,
    A. Alenaizan, A. M. James, S. Lehtola, J. P. Misiewicz, M. Scheurer,
    R. A. Shaw, J. B. Schriber, Y. Xie, Z. L. Glick, D. A. Sirianni,
    J. S. O'Brien, J. M. Waldrop, A. Kumar, E. G. Hohenstein,
    B. P. Pritchard, B. R. Brooks, H. F. Schaefer III, A. Yu. Sokolov,
    K. Patkowski, A. E. DePrince III, U. Bozkaya, R. A. King,
    F. A. Evangelista, J. M. Turney, T. D. Crawford, C. D. Sherrill,
    J. Chem. Phys. 152(18) 184108 (2020). https://doi.org/10.1063/5.0006002

                            Additional Code Authors
    E. T. Seidl, C. L. Janssen, E. F. Valeev, M. L. Leininger,
    J. F. Gonthier, R. M. Richard, H. R. McAlexander, M. Saitow, X. Wang,
    P. Verma, M. H. Lechner, and A. Jiang

             Previous Authors, Complete List of Code Contributors,
                       and Citations for Specific Modules
    https://github.com/psi4/psi4/blob/master/codemeta.json
    https://github.com/psi4/psi4/graphs/contributors
    http://psicode.org/psi4manual/master/introduction.html#citing-psifour

    -----------------------------------------------------------------------


    Psi4 started on: Tuesday, 27 September 2022 06:25PM

    Process ID: 10544
    Host:       Lenovo-Y540-Zoha
    PSIDATADIR: C:\Users\64292\Anaconda3\envs\qm-tools\lib\share\psi4
    Memory:     476.8 MiB
    Threads:    1
    
  ==> Input QCSchema <==

--------------------------------------------------------------------------
{'driver': 'energy',
 'extras': {'psiapi': True, 'wfn_qcvars_only': True},
 'id': None,
 'keywords': {'function_kwargs': {}},
 'model': {'basis': 'aug-cc-pvdz', 'method': 'scf'},
 'molecule': {'atom_labels': ['1', '2', '3', '5', '6', '7'],
              'atomic_numbers': [8, 1, 1, 8, 1, 1],
              'fix_com': True,
              'fix_orientation': True,
              'fragment_charges': [0.0, 0.0],
              'fragment_multiplicities': [1, 1],
              'fragments': [[0, 1, 2], [3, 4, 5]],
              'geometry': [1.2328575412292244e-17, -0.051183389255754774, -3.3050226556771247, 1.2328575412292244e-17,
                           -0.051183389255754774, -1.4152965302192972, 1.2328575412292244e-17, 1.7781852282291912,
                           -3.7788108895950563, 1.2328575412292244e-17, -0.051183389255754774, 3.120046170879491,
                           -0.8182754154208096, 1.3661112048376154, 4.064909233608405, 0.8182754154208092,
                           -1.4684779833491264, 4.064909233608404],
              'mass_numbers': [16, 1, 1, 16, 1, 1],
              'masses': [15.99491461957, 1.00782503223, 1.00782503223, 15.99491461957, 1.00782503223, 1.00782503223],
              'molecular_charge': 0.0,
              'molecular_multiplicity': 1,
              'name': 'H4O2',
              'provenance': {'creator': 'QCElemental',
                             'routine': 'qcelemental.molparse.from_string',
                             'version': 'v0.25.0'},
              'real': [True, True, True, False, False, False],
              'schema_name': 'qcschema_molecule',
              'schema_version': 2,
              'symbols': ['O', 'H', 'H', 'O', 'H', 'H'],
              'validated': True},
 'protocols': {'stdout': True},
 'provenance': {'creator': 'QCElemental', 'routine': 'qcelemental.models.results', 'version': 'v0.25.0'},
 'schema_name': 'qcschema_input',
 'schema_version': 1}
--------------------------------------------------------------------------

Scratch directory: C:\Users\64292\AppData\Local\Temp/

*** tstart() called on Lenovo-Y540-Zoha
*** at Tue Sep 27 18:48:06 2022

   => Loading Basis Set <=

    Name: AUG-CC-PVDZ
    Role: ORBITAL
    Keyword: BASIS
    atoms 1, 4     entry O          line   254 file C:\Users\64292\Anaconda3\envs\qm-tools\lib\share\psi4\basis\aug-cc-pvdz.gbs 
    atoms 2-3, 5-6 entry H          line    40 file C:\Users\64292\Anaconda3\envs\qm-tools\lib\share\psi4\basis\aug-cc-pvdz.gbs 


         ---------------------------------------------------------
                                   SCF
               by Justin Turney, Rob Parrish, Andy Simmonett
                          and Daniel G. A. Smith
                              RHF Reference
                        1 Threads,    476 MiB Core
         ---------------------------------------------------------

  ==> Geometry <==

    Molecular point group: c1
    Full point group: C1

    Geometry (in Bohr), charge = 0, multiplicity = 1:

       Center              X                  Y                   Z               Mass       
    ------------   -----------------  -----------------  -----------------  -----------------
         O            0.000000000000    -0.051183389256    -3.305022655677    15.994914619570
         H            0.000000000000    -0.051183389256    -1.415296530219     1.007825032230
         H            0.000000000000     1.778185228229    -3.778810889595     1.007825032230
      Gh(O)           0.000000000000    -0.051183389256     3.120046170879    15.994914619570
      Gh(H)          -0.818275415421     1.366111204838     4.064909233608     1.007825032230
      Gh(H)           0.818275415421    -1.468477983349     4.064909233608     1.007825032230

  Running in c1 symmetry.

  Rotational constants: A =      7.04356  B =      0.15809  C =      0.15504 [cm^-1]
  Rotational constants: A = 211160.65885  B =   4739.38340  C =   4648.00626 [MHz]
  Nuclear repulsion =    8.801420354575152

  Charge       = 0
  Multiplicity = 1
  Electrons    = 10
  Nalpha       = 5
  Nbeta        = 5

  ==> Algorithm <==

  SCF Algorithm Type is DF.
  DIIS enabled.
  MOM disabled.
  Fractional occupation disabled.
  Guess Type is SAD.
  Energy threshold   = 1.00e-06
  Density threshold  = 1.00e-06
  Integral threshold = 1.00e-12

  ==> Primary Basis <==

  Basis Set: AUG-CC-PVDZ
    Blend: AUG-CC-PVDZ
    Number of shells: 38
    Number of basis functions: 82
    Number of Cartesian functions: 86
    Spherical Harmonics?: true
    Max angular momentum: 2

   => Loading Basis Set <=

    Name: (AUG-CC-PVDZ AUX)
    Role: JKFIT
    Keyword: DF_BASIS_SCF
    atoms 1, 4     entry O          line   270 file C:\Users\64292\Anaconda3\envs\qm-tools\lib\share\psi4\basis\aug-cc-pvdz-jkfit.gbs 
    atoms 2-3, 5-6 entry H          line    70 file C:\Users\64292\Anaconda3\envs\qm-tools\lib\share\psi4\basis\aug-cc-pvdz-jkfit.gbs 

  ==> Integral Setup <==

  DFHelper Memory: AOs need 0.017 GiB; user supplied 0.349 GiB. Using in-core AOs.

  ==> MemDFJK: Density-Fitted J/K Matrices <==

    J tasked:                   Yes
    K tasked:                   Yes
    wK tasked:                   No
    OpenMP threads:               1
    Memory [MiB]:               357
    Algorithm:                 Core
    Schwarz Cutoff:           1E-12
    Mask sparsity (%):       0.0297
    Fitting Condition:        1E-10

   => Auxiliary Basis Set <=

  Basis Set: (AUG-CC-PVDZ AUX)
    Blend: AUG-CC-PVDZ-JKFIT
    Number of shells: 104
    Number of basis functions: 300
    Number of Cartesian functions: 342
    Spherical Harmonics?: true
    Max angular momentum: 3

  Minimum eigenvalue in the overlap matrix is 2.2160534451E-03.
  Reciprocal condition number of the overlap matrix is 3.2374096144E-04.
    Using symmetric orthogonalization.

  ==> Pre-Iterations <==

  SCF Guess: Superposition of Atomic Densities via on-the-fly atomic UHF (no occupation information).

   -------------------------
    Irrep   Nso     Nmo    
   -------------------------
     A         82      82 
   -------------------------
    Total      82      82
   -------------------------

  ==> Iterations <==

                           Total Energy        Delta E     RMS |[F,P]|

   @DF-RHF iter SAD:   -75.41487091200719   -7.54149e+01   0.00000e+00 
   @DF-RHF iter   1:   -75.94940832168641   -5.34537e-01   5.50499e-03 DIIS/ADIIS
   @DF-RHF iter   2:   -76.00128336991509   -5.18750e-02   3.77396e-03 DIIS/ADIIS
   @DF-RHF iter   3:   -76.03523262697564   -3.39493e-02   2.81187e-04 DIIS/ADIIS
   @DF-RHF iter   4:   -76.03568617544035   -4.53548e-04   6.60331e-05 DIIS
   @DF-RHF iter   5:   -76.03571632345218   -3.01480e-05   1.56266e-05 DIIS
   @DF-RHF iter   6:   -76.03571889270715   -2.56925e-06   3.09012e-06 DIIS
   @DF-RHF iter   7:   -76.03571899595674   -1.03250e-07   5.04341e-07 DIIS
  Energy and wave function converged.


  ==> Post-Iterations <==

    Orbital Energies [Eh]
    ---------------------

    Doubly Occupied:                                                      

       1A    -20.584252     2A     -1.335646     3A     -0.696510  
       4A     -0.577386     5A     -0.506084  

    Virtual:                                                              

       6A      0.024455     7A      0.048602     8A      0.058450  
       9A      0.080202    10A      0.135909    11A      0.145092  
      12A      0.176886    13A      0.191756    14A      0.216665  
      15A      0.222129    16A      0.228544    17A      0.264371  
      18A      0.316421    19A      0.350725    20A      0.370860  
      21A      0.396465    22A      0.409887    23A      0.414382  
      24A      0.425640    25A      0.458040    26A      0.466693  
      27A      0.492285    28A      0.510619    29A      0.533649  
      30A      0.574485    31A      0.614524    32A      0.648499  
      33A      0.739318    34A      0.812763    35A      0.896120  
      36A      0.941818    37A      1.015732    38A      1.105140  
      39A      1.139218    40A      1.162464    41A      1.192358  
      42A      1.204724    43A      1.273593    44A      1.289716  
      45A      1.297904    46A      1.332877    47A      1.335991  
      48A      1.416458    49A      1.492957    50A      1.526269  
      51A      1.677665    52A      1.987485    53A      1.990590  
      54A      2.054564    55A      2.083922    56A      2.316048  
      57A      2.360098    58A      2.381645    59A      2.389484  
      60A      2.408180    61A      2.430837    62A      2.617425  
      63A      2.739665    64A      2.810883    65A      2.982370  
      66A      3.375820    67A      3.673735    68A      3.701280  
      69A      3.715058    70A      3.904201    71A      3.932507  
      72A      4.028755    73A      4.249412    74A      4.868422  
      75A      4.943612    76A      5.006908    77A      5.300514  
      78A      5.326481    79A      5.574538    80A      6.271241  
      81A      6.813445    82A     33.527287  

    Final Occupation by Irrep:
              A 
    DOCC [     5 ]

  @DF-RHF Final Energy:   -76.03571899595674

   => Energetics <=

    Nuclear Repulsion Energy =              8.8014203545751517
    One-Electron Energy =                -122.2745022965590636
    Two-Electron Energy =                  37.4373629460271644
    Total Energy =                        -76.0357189959567421

Computation Completed


Properties will be evaluated at   0.000000,   0.000000,   0.000000 [a0]

Properties computed using the SCF density matrix


 Multipole Moments:

 ------------------------------------------------------------------------------------
     Multipole            Electronic (a.u.)      Nuclear  (a.u.)        Total (a.u.)
 ------------------------------------------------------------------------------------

 L = 1.  Multiply by 2.5417464519 to convert [e a0] to [Debye]
 Dipole X            :         -0.0000521            0.0000000           -0.0000521
 Dipole Y            :         -0.6852473            1.3175347            0.6322874
 Dipole Z            :         32.1236392          -31.6342887            0.4893505
 Magnitude           :                                                    0.7995319

 ------------------------------------------------------------------------------------

*** tstop() called on Lenovo-Y540-Zoha at Tue Sep 27 18:48:07 2022
Module time:
	user time   =        nan seconds =        nan minutes
	system time =        nan seconds =        nan minutes
	total time  =          1 seconds =       0.02 minutes
Total time:
	user time   =        nan seconds =        nan minutes
	system time =        nan seconds =        nan minutes
	total time  =       1306 seconds =      21.77 minutes

    Psi4 stopped on: Tuesday, 27 September 2022 06:48PM
    Psi4 wall time for execution: 0:00:00.99


    -----------------------------------------------------------------------
          Psi4: An Open-Source Ab Initio Electronic Structure Package
                               Psi4 1.6.1 release

                         Git: Rev {HEAD} 5b9f6e3 


    D. G. A. Smith, L. A. Burns, A. C. Simmonett, R. M. Parrish,
    M. C. Schieber, R. Galvelis, P. Kraus, H. Kruse, R. Di Remigio,
    A. Alenaizan, A. M. James, S. Lehtola, J. P. Misiewicz, M. Scheurer,
    R. A. Shaw, J. B. Schriber, Y. Xie, Z. L. Glick, D. A. Sirianni,
    J. S. O'Brien, J. M. Waldrop, A. Kumar, E. G. Hohenstein,
    B. P. Pritchard, B. R. Brooks, H. F. Schaefer III, A. Yu. Sokolov,
    K. Patkowski, A. E. DePrince III, U. Bozkaya, R. A. King,
    F. A. Evangelista, J. M. Turney, T. D. Crawford, C. D. Sherrill,
    J. Chem. Phys. 152(18) 184108 (2020). https://doi.org/10.1063/5.0006002

                            Additional Code Authors
    E. T. Seidl, C. L. Janssen, E. F. Valeev, M. L. Leininger,
    J. F. Gonthier, R. M. Richard, H. R. McAlexander, M. Saitow, X. Wang,
    P. Verma, M. H. Lechner, and A. Jiang

             Previous Authors, Complete List of Code Contributors,
                       and Citations for Specific Modules
    https://github.com/psi4/psi4/blob/master/codemeta.json
    https://github.com/psi4/psi4/graphs/contributors
    http://psicode.org/psi4manual/master/introduction.html#citing-psifour

    -----------------------------------------------------------------------


    Psi4 started on: Tuesday, 27 September 2022 06:25PM

    Process ID: 10544
    Host:       Lenovo-Y540-Zoha
    PSIDATADIR: C:\Users\64292\Anaconda3\envs\qm-tools\lib\share\psi4
    Memory:     476.8 MiB
    Threads:    1
    
  ==> Input QCSchema <==

--------------------------------------------------------------------------
{'driver': 'energy',
 'extras': {'psiapi': True, 'wfn_qcvars_only': True},
 'id': None,
 'keywords': {'function_kwargs': {}},
 'model': {'basis': 'aug-cc-pvdz', 'method': 'scf'},
 'molecule': {'atom_labels': ['1', '2', '3', '5', '6', '7'],
              'atomic_numbers': [8, 1, 1, 8, 1, 1],
              'fix_com': True,
              'fix_orientation': True,
              'fragment_charges': [0.0, 0.0],
              'fragment_multiplicities': [1, 1],
              'fragments': [[0, 1, 2], [3, 4, 5]],
              'geometry': [1.2328575412292244e-17, -0.051183389255754774, -3.3050226556771247, 1.2328575412292244e-17,
                           -0.051183389255754774, -1.4152965302192972, 1.2328575412292244e-17, 1.7781852282291912,
                           -3.7788108895950563, 1.2328575412292244e-17, -0.051183389255754774, 3.120046170879491,
                           -0.8182754154208096, 1.3661112048376154, 4.064909233608405, 0.8182754154208092,
                           -1.4684779833491264, 4.064909233608404],
              'mass_numbers': [16, 1, 1, 16, 1, 1],
              'masses': [15.99491461957, 1.00782503223, 1.00782503223, 15.99491461957, 1.00782503223, 1.00782503223],
              'molecular_charge': 0.0,
              'molecular_multiplicity': 1,
              'name': 'H4O2',
              'provenance': {'creator': 'QCElemental',
                             'routine': 'qcelemental.molparse.from_string',
                             'version': 'v0.25.0'},
              'real': [True, True, True, True, True, True],
              'schema_name': 'qcschema_molecule',
              'schema_version': 2,
              'symbols': ['O', 'H', 'H', 'O', 'H', 'H'],
              'validated': True},
 'protocols': {'stdout': True},
 'provenance': {'creator': 'QCElemental', 'routine': 'qcelemental.models.results', 'version': 'v0.25.0'},
 'schema_name': 'qcschema_input',
 'schema_version': 1}
--------------------------------------------------------------------------

Scratch directory: C:\Users\64292\AppData\Local\Temp/

*** tstart() called on Lenovo-Y540-Zoha
*** at Tue Sep 27 18:48:07 2022

   => Loading Basis Set <=

    Name: AUG-CC-PVDZ
    Role: ORBITAL
    Keyword: BASIS
    atoms 1, 4     entry O          line   254 file C:\Users\64292\Anaconda3\envs\qm-tools\lib\share\psi4\basis\aug-cc-pvdz.gbs 
    atoms 2-3, 5-6 entry H          line    40 file C:\Users\64292\Anaconda3\envs\qm-tools\lib\share\psi4\basis\aug-cc-pvdz.gbs 


         ---------------------------------------------------------
                                   SCF
               by Justin Turney, Rob Parrish, Andy Simmonett
                          and Daniel G. A. Smith
                              RHF Reference
                        1 Threads,    476 MiB Core
         ---------------------------------------------------------

  ==> Geometry <==

    Molecular point group: c1
    Full point group: C1

    Geometry (in Bohr), charge = 0, multiplicity = 1:

       Center              X                  Y                   Z               Mass       
    ------------   -----------------  -----------------  -----------------  -----------------
         O            0.000000000000    -0.051183389256    -3.305022655677    15.994914619570
         H            0.000000000000    -0.051183389256    -1.415296530219     1.007825032230
         H            0.000000000000     1.778185228229    -3.778810889595     1.007825032230
         O            0.000000000000    -0.051183389256     3.120046170879    15.994914619570
         H           -0.818275415421     1.366111204838     4.064909233608     1.007825032230
         H            0.818275415421    -1.468477983349     4.064909233608     1.007825032230

  Running in c1 symmetry.

  Rotational constants: A =      7.04356  B =      0.15809  C =      0.15504 [cm^-1]
  Rotational constants: A = 211160.65885  B =   4739.38340  C =   4648.00626 [MHz]
  Nuclear repulsion =   33.132491935189307

  Charge       = 0
  Multiplicity = 1
  Electrons    = 20
  Nalpha       = 10
  Nbeta        = 10

  ==> Algorithm <==

  SCF Algorithm Type is DF.
  DIIS enabled.
  MOM disabled.
  Fractional occupation disabled.
  Guess Type is SAD.
  Energy threshold   = 1.00e-06
  Density threshold  = 1.00e-06
  Integral threshold = 1.00e-12

  ==> Primary Basis <==

  Basis Set: AUG-CC-PVDZ
    Blend: AUG-CC-PVDZ
    Number of shells: 38
    Number of basis functions: 82
    Number of Cartesian functions: 86
    Spherical Harmonics?: true
    Max angular momentum: 2

   => Loading Basis Set <=

    Name: (AUG-CC-PVDZ AUX)
    Role: JKFIT
    Keyword: DF_BASIS_SCF
    atoms 1, 4     entry O          line   270 file C:\Users\64292\Anaconda3\envs\qm-tools\lib\share\psi4\basis\aug-cc-pvdz-jkfit.gbs 
    atoms 2-3, 5-6 entry H          line    70 file C:\Users\64292\Anaconda3\envs\qm-tools\lib\share\psi4\basis\aug-cc-pvdz-jkfit.gbs 

  ==> Integral Setup <==

  DFHelper Memory: AOs need 0.017 GiB; user supplied 0.349 GiB. Using in-core AOs.

  ==> MemDFJK: Density-Fitted J/K Matrices <==

    J tasked:                   Yes
    K tasked:                   Yes
    wK tasked:                   No
    OpenMP threads:               1
    Memory [MiB]:               357
    Algorithm:                 Core
    Schwarz Cutoff:           1E-12
    Mask sparsity (%):       0.0297
    Fitting Condition:        1E-10

   => Auxiliary Basis Set <=

  Basis Set: (AUG-CC-PVDZ AUX)
    Blend: AUG-CC-PVDZ-JKFIT
    Number of shells: 104
    Number of basis functions: 300
    Number of Cartesian functions: 342
    Spherical Harmonics?: true
    Max angular momentum: 3

  Minimum eigenvalue in the overlap matrix is 2.2160534451E-03.
  Reciprocal condition number of the overlap matrix is 3.2374096144E-04.
    Using symmetric orthogonalization.

  ==> Pre-Iterations <==

  SCF Guess: Superposition of Atomic Densities via on-the-fly atomic UHF (no occupation information).

   -------------------------
    Irrep   Nso     Nmo    
   -------------------------
     A         82      82 
   -------------------------
    Total      82      82
   -------------------------

  ==> Iterations <==

                           Total Energy        Delta E     RMS |[F,P]|

   @DF-RHF iter SAD:  -150.84516185694179   -1.50845e+02   0.00000e+00 
   @DF-RHF iter   1:  -151.90812303731198   -1.06296e+00   7.62062e-03 DIIS/ADIIS
   @DF-RHF iter   2:  -152.00849394508731   -1.00371e-01   5.08474e-03 DIIS/ADIIS
   @DF-RHF iter   3:  -152.06982919720758   -6.13353e-02   4.06641e-04 DIIS/ADIIS
   @DF-RHF iter   4:  -152.07076775844314   -9.38561e-04   8.99949e-05 DIIS
   @DF-RHF iter   5:  -152.07082506049963   -5.73021e-05   2.45512e-05 DIIS
   @DF-RHF iter   6:  -152.07083034129920   -5.28080e-06   1.05800e-05 DIIS
   @DF-RHF iter   7:  -152.07083087240244   -5.31103e-07   2.70331e-06 DIIS
   @DF-RHF iter   8:  -152.07083094078536   -6.83829e-08   4.42587e-07 DIIS
  Energy and wave function converged.


  ==> Post-Iterations <==

    Orbital Energies [Eh]
    ---------------------

    Doubly Occupied:                                                      

       1A    -20.594083     2A    -20.560697     3A     -1.344929  
       4A     -1.313161     5A     -0.739574     6A     -0.675202  
       7A     -0.574082     8A     -0.551592     9A     -0.519879  
      10A     -0.483872  

    Virtual:                                                              

      11A      0.026610    12A      0.049567    13A      0.056946  
      14A      0.089263    15A      0.174972    16A      0.182131  
      17A      0.193956    18A      0.213505    19A      0.230663  
      20A      0.234209    21A      0.246151    22A      0.267066  
      23A      0.294395    24A      0.304592    25A      0.351347  
      26A      0.364197    27A      0.402396    28A      0.419014  
      29A      0.432448    30A      0.453657    31A      0.512581  
      32A      0.530370    33A      0.535963    34A      0.578621  
      35A      0.628249    36A      0.650755    37A      0.664397  
      38A      0.770537    39A      0.845003    40A      0.866710  
      41A      0.890800    42A      0.968127    43A      1.057849  
      44A      1.129163    45A      1.134307    46A      1.164734  
      47A      1.211194    48A      1.216963    49A      1.326297  
      50A      1.423461    51A      1.461707    52A      1.489831  
      53A      1.513322    54A      1.566061    55A      1.606915  
      56A      1.845523    57A      1.945944    58A      2.012586  
      59A      2.023612    60A      2.031700    61A      2.040646  
      62A      2.108539    63A      2.356807    64A      2.389432  
      65A      2.423311    66A      2.464219    67A      2.516855  
      68A      2.692683    69A      2.741890    70A      2.773828  
      71A      2.901487    72A      3.007105    73A      3.639408  
      74A      3.682186    75A      3.699016    76A      3.727351  
      77A      3.738638    78A      3.751023    79A      4.041813  
      80A      4.121487    81A      4.166178    82A      4.281517  

    Final Occupation by Irrep:
              A 
    DOCC [    10 ]

  @DF-RHF Final Energy:  -152.07083094078536

   => Energetics <=

    Nuclear Repulsion Energy =             33.1324919351893072
    One-Electron Energy =                -275.6924810916813158
    Two-Electron Energy =                  90.4891582157066523
    Total Energy =                       -152.0708309407853562

Computation Completed


Properties will be evaluated at   0.000000,   0.000000,   0.000000 [a0]

Properties computed using the SCF density matrix


 Multipole Moments:

 ------------------------------------------------------------------------------------
     Multipole            Electronic (a.u.)      Nuclear  (a.u.)        Total (a.u.)
 ------------------------------------------------------------------------------------

 L = 1.  Multiply by 2.5417464519 to convert [e a0] to [Debye]
 Dipole X            :          0.0009230           -0.0000000            0.0009230
 Dipole Y            :         -0.1924192            0.8057008            0.6132817
 Dipole Z            :         -0.1320527            1.4558992            1.3238464
 Magnitude           :                                                    1.4590012

 ------------------------------------------------------------------------------------

*** tstop() called on Lenovo-Y540-Zoha at Tue Sep 27 18:48:08 2022
Module time:
	user time   =        nan seconds =        nan minutes
	system time =        nan seconds =        nan minutes
	total time  =          1 seconds =       0.02 minutes
Total time:
	user time   =        nan seconds =        nan minutes
	system time =        nan seconds =        nan minutes
	total time  =       1307 seconds =      21.78 minutes

    Psi4 stopped on: Tuesday, 27 September 2022 06:48PM
    Psi4 wall time for execution: 0:00:01.00


  //>>>>>>>>>>>>>>>>>>>>>>>>>>>>>>>>>>>//
  //          ManyBody Results         //
  //<<<<<<<<<<<<<<<<<<<<<<<<<<<<<<<<<<<//


   ==> N-Body: Counterpoise Corrected (CP) energies <==

        n-Body     Total Energy            Interaction Energy                          N-body Contribution to Interaction Energy
                   [Eh]                    [Eh]                  [kcal/mol]            [Eh]                  [kcal/mol]
             1  N/A                         0.000000000000        0.000000000000        0.000000000000        0.000000000000
  FULL/RTN   2  N/A                        -0.005272910906       -3.308801548186       -0.005272910906       -3.308801548186

