
Host: Lenovo-Y540-Zoha

Timers On : Tue Sep 27 18:26:20 2022
Timers Off: Tue Sep 27 18:26:21 2022

Wall Time:        0.99 seconds

                                                       Time (seconds)
Module                                       User      System        Wall        Calls

--------------------------------------------------------------------------------------

**************************************************************************************
